/*--------------------------------*- C++ -*----------------------------------*\
  =========                 |
  \\      /  F ield         | OpenFOAM: The Open Source CFD Toolbox
   \\    /   O peration     | Website:  https://openfoam.org
    \\  /    A nd           | Version:  11
     \\/     M anipulation  |
\*---------------------------------------------------------------------------*/
FoamFile
{
    format      ascii;
    class       volScalarField;
    location    "0.02";
    object      nut;
}
// * * * * * * * * * * * * * * * * * * * * * * * * * * * * * * * * * * * * * //

dimensions      [0 2 -1 0 0 0 0];

internalField   nonuniform List<scalar> 
2880
(
2.17312e-06
1.37704e-05
3.76684e-05
6.98768e-05
0.000108542
0.000154107
5.64e-05
9.25885e-05
0.000144186
0.000217193
0.000316084
0.000492279
6.37303e-05
0.000205208
0.000304803
0.000447786
0.000647272
0.00100843
7.14462e-05
0.000316904
0.000481038
0.000709219
0.00101646
0.00150916
7.73716e-05
0.000422805
0.000665061
0.000981644
0.001386
0.00194923
8.19121e-05
0.000518621
0.00084987
0.00125129
0.00173515
0.00233071
8.53884e-05
0.000602357
0.00102788
0.00150711
0.00205266
0.00266104
8.80272e-05
0.000672965
0.00119149
0.00173978
0.00233157
0.00294485
8.99776e-05
0.000730098
0.00133411
0.00194155
0.00256696
0.00317995
9.13317e-05
0.000773781
0.00145061
0.00210645
0.00275506
0.00336378
9.21458e-05
0.000804046
0.00153942
0.00223241
0.00289266
0.00349398
9.24662e-05
0.000820517
0.00159619
0.00231393
0.00297827
0.00356899
9.24173e-05
0.00082221
0.00162217
0.00235193
0.00301136
0.00358803
9.21905e-05
0.000807865
0.00161815
0.00234667
0.00299207
0.00355111
9.16569e-05
0.000781059
0.00158566
0.00229922
0.00292163
0.00345785
9.0692e-05
0.000744938
0.00152616
0.00221062
0.00280125
0.00330804
8.9164e-05
0.000701171
0.00144038
0.00208138
0.00263128
0.00310296
8.69197e-05
0.000650432
0.00132789
0.00191132
0.00241098
0.0028448
8.37676e-05
0.000591155
0.00118809
0.00169963
0.00213864
0.00253195
7.94641e-05
0.000518931
0.00101646
0.00144508
0.00181004
0.00216115
7.37e-05
0.000426588
0.00081134
0.00115153
0.00141726
0.00171867
6.60643e-05
0.000306626
0.000572382
0.000818974
0.0009585
0.00116963
6.12937e-05
0.000159794
0.000309839
0.000464662
0.000434511
0.00056321
2.52905e-06
2.58679e-05
7.71065e-05
0.000157816
4.78803e-05
6.02453e-05
0.00124544
0.00227693
0.00291047
0.00323927
0.00341346
0.0035943
0.00389016
0.00427156
0.0045892
0.00470326
0.00460618
0.00440622
0.00419264
0.00400744
0.00385844
0.00374032
0.00364631
0.00357152
0.00351265
0.00346717
0.00343283
0.00340764
0.00339
0.00337862
0.00153152
0.00249738
0.003111
0.0034282
0.00356681
0.00368125
0.00388349
0.00419023
0.00449502
0.00465382
0.00460418
0.004429
0.00422193
0.00403559
0.00388417
0.00376413
0.0036685
0.00359189
0.00353078
0.00348264
0.00344521
0.00341649
0.00339514
0.00338027
0.00192532
0.00279285
0.00336388
0.00362866
0.0037086
0.0037544
0.00386637
0.00409317
0.00437764
0.00458101
0.00459804
0.0044608
0.00426499
0.00407718
0.00392152
0.00379788
0.00369935
0.00361983
0.00355546
0.00350364
0.00346204
0.00342861
0.00340227
0.00338275
0.00234489
0.003129
0.00362701
0.00382638
0.00384637
0.0038247
0.0038606
0.0040042
0.00425118
0.00448677
0.00457922
0.00449455
0.00431832
0.00413095
0.00397005
0.00384134
0.00373866
0.00365526
0.00358669
0.00353023
0.00348351
0.00344436
0.00341186
0.00338639
0.00273906
0.00344887
0.0038778
0.00402712
0.00399948
0.00391124
0.00387864
0.00393931
0.00412987
0.00437704
0.00453645
0.00452111
0.00437671
0.00419461
0.00402881
0.00389391
0.003786
0.00369785
0.00362431
0.0035624
0.00350975
0.00346407
0.00342421
0.00339139
0.00309229
0.00374291
0.00411447
0.00422876
0.00416631
0.00402513
0.00391679
0.00390329
0.00402355
0.004257
0.004468
0.00453129
0.00443329
0.00426469
0.00409611
0.00395457
0.00384061
0.0037471
0.00366799
0.0035999
0.00354059
0.00348763
0.00343951
0.00339796
0.00340118
0.00399947
0.00433294
0.00442445
0.00433842
0.00415677
0.00397955
0.00389685
0.00393855
0.00413335
0.00437685
0.0045132
0.00447954
0.00433632
0.00416939
0.00402164
0.00390126
0.00380214
0.00371711
0.00364222
0.00357544
0.00351464
0.00345791
0.00340651
0.00366017
0.00421903
0.00452754
0.00460595
0.00450596
0.00429568
0.0040625
0.00391136
0.00387522
0.0040114
0.00426392
0.00446606
0.00450662
0.00440318
0.00424465
0.00409229
0.00396595
0.0038616
0.00377063
0.00368844
0.00361347
0.00354436
0.00347899
0.00341715
0.00386893
0.00439911
0.00469224
0.00476537
0.0046598
0.00443191
0.00415755
0.00393778
0.00383061
0.00389572
0.00413286
0.00438978
0.00450705
0.00445756
0.00431546
0.00416171
0.00403178
0.00392346
0.00382688
0.00373709
0.00365325
0.00357536
0.00350163
0.00342951
0.00402731
0.00453631
0.00482137
0.00489584
0.00479212
0.00455645
0.00425357
0.00397455
0.00380293
0.0037904
0.00398836
0.00428164
0.00447739
0.00449251
0.00437867
0.00422802
0.00409558
0.00398534
0.00388369
0.00378629
0.00369306
0.00360575
0.00352398
0.00344264
0.00413376
0.00462715
0.00491004
0.00499168
0.00489657
0.004662
0.00434238
0.00401689
0.00378772
0.0036974
0.00383656
0.00414271
0.00441129
0.00450075
0.00442789
0.00429162
0.00415744
0.00404475
0.00393872
0.00383401
0.00373116
0.00363359
0.00354368
0.00345486
0.0041865
0.00466859
0.00495427
0.00504837
0.00496814
0.00474288
0.00441775
0.0040616
0.00377539
0.00361556
0.00368363
0.00397764
0.00430699
0.00447752
0.00445606
0.00434384
0.00422042
0.00409799
0.00398957
0.0038782
0.00376607
0.00365733
0.00355831
0.00346365
0.00418416
0.00465833
0.00495108
0.00506251
0.00500304
0.0047947
0.00447438
0.00410107
0.00376651
0.00354491
0.00353571
0.00379358
0.00416529
0.00441938
0.00446345
0.00438337
0.00427541
0.00414841
0.00402745
0.00391781
0.00379671
0.00367614
0.00356599
0.0034659
0.00412603
0.00459496
0.00489852
0.00503175
0.00499852
0.00481417
0.00450811
0.00412992
0.00375943
0.00348514
0.00339844
0.00359967
0.00399007
0.00432328
0.00444596
0.00440943
0.00432033
0.00419217
0.00405553
0.00395049
0.00382236
0.00369017
0.00356605
0.00345844
0.00401209
0.00447806
0.00479566
0.00495476
0.00495287
0.00479903
0.00451584
0.00414422
0.00375171
0.00343476
0.00327593
0.00340601
0.00378866
0.00418852
0.00439831
0.00441834
0.00435117
0.00422578
0.00408913
0.0039691
0.00384416
0.00370062
0.00355945
0.00343905
0.00384283
0.00430815
0.00464259
0.00483119
0.00486527
0.00474791
0.0044955
0.00414113
0.00374185
0.0033896
0.00316995
0.00322224
0.00357141
0.00401794
0.00431679
0.00440636
0.00436789
0.00425405
0.00412193
0.00398061
0.00386408
0.00370919
0.00354898
0.00340765
0.00361776
0.00408676
0.00444038
0.00466164
0.00473583
0.00466034
0.00444582
0.0041185
0.00372611
0.00334978
0.00308124
0.00305654
0.00335086
0.00381843
0.00420078
0.00437163
0.00437294
0.00428043
0.00414716
0.0040062
0.00387939
0.00371906
0.00353946
0.00336726
0.00333445
0.00381685
0.00419095
0.00444758
0.00456549
0.00453661
0.00436632
0.00407474
0.00370129
0.00331485
0.00300965
0.0029149
0.00314032
0.00360148
0.0040525
0.00431177
0.00436517
0.00430556
0.0041808
0.0040401
0.00389276
0.00373731
0.00353708
0.00332419
0.00299301
0.00349978
0.00389657
0.00419123
0.00435604
0.00437786
0.00425729
0.00400903
0.00366514
0.00328307
0.0029535
0.00280014
0.00295115
0.00338075
0.00387706
0.00422305
0.00435281
0.00433277
0.00422354
0.00408516
0.00392562
0.00376743
0.00354912
0.00328798
0.00259169
0.00313596
0.00355965
0.0038955
0.00411014
0.0041861
0.00411985
0.00392133
0.0036162
0.00325224
0.00291019
0.00271167
0.00279055
0.00316978
0.00368511
0.00410916
0.00432602
0.00435851
0.00428477
0.00415334
0.0039983
0.0038214
0.00359009
0.00327367
0.00213311
0.00272192
0.00318231
0.00356393
0.00383139
0.00396437
0.00395612
0.00381252
0.00355377
0.00321952
0.0028793
0.00264569
0.00265763
0.00297603
0.00348696
0.00397389
0.00428408
0.00439643
0.0043664
0.00426944
0.00412926
0.00394827
0.00372084
0.00335388
0.00161635
0.00225662
0.0027668
0.00320081
0.00352468
0.00371714
0.00376959
0.00368479
0.00347829
0.00318285
0.0028577
0.0026024
0.00255171
0.00279767
0.00328188
0.00381324
0.00421334
0.0044185
0.00445783
0.00440111
0.00431037
0.00422597
0.00418665
0.00422928
0.00101626
0.00172762
0.00231373
0.00281185
0.00319723
0.00345123
0.00356589
0.00354216
0.00339181
0.00314166
0.00284166
0.00257769
0.00247485
0.00264484
0.00308106
0.00363144
0.00410911
0.00441451
0.00455152
0.00457465
0.00455268
0.00453224
0.00454399
0.00462205
0.000362291
0.00105191
0.00182245
0.00241073
0.00286328
0.0031785
0.00335431
0.0033915
0.00329874
0.00309756
0.00282957
0.00256788
0.00242512
0.00252183
0.00289414
0.00343588
0.00396819
0.00436426
0.00459554
0.00469324
0.00473794
0.00477117
0.00483995
0.00494981
2.65758e-06
1.49082e-05
5.01873e-05
0.000110745
0.000197118
4.71658e-05
6.29461e-05
0.00013798
0.000252232
0.000360764
0.000445489
0.000324702
6.63234e-05
0.000272183
0.000480892
0.000616627
0.000668625
0.00055847
7.31927e-05
0.000382403
0.000682634
0.000836037
0.000858428
0.00074072
7.81595e-05
0.000475625
0.000853285
0.0010249
0.00103103
0.000913117
8.17915e-05
0.000557035
0.00100161
0.00119318
0.00119769
0.00109095
8.44529e-05
0.000629746
0.00113382
0.00134872
0.00136553
0.00128225
8.63779e-05
0.000695038
0.00125313
0.00149622
0.00153731
0.00148636
8.77185e-05
0.000753089
0.00136015
0.00163783
0.00171291
0.00170091
8.8577e-05
0.000803172
0.00145431
0.00177292
0.00189035
0.00192375
8.90286e-05
0.000843848
0.0015342
0.00189872
0.00206534
0.00214893
8.91149e-05
0.000872579
0.00159774
0.0020104
0.00223182
0.00237107
8.88361e-05
0.000890152
0.00164174
0.00210158
0.00238115
0.0025808
8.81368e-05
0.000896334
0.00166225
0.00216426
0.00250188
0.00276464
8.7008e-05
0.000889994
0.00165457
0.00218907
0.00257999
0.0029045
8.54222e-05
0.000869149
0.00161327
0.00216591
0.00259969
0.00297832
8.3331e-05
0.000830949
0.00153336
0.00208525
0.00254489
0.00296232
8.06592e-05
0.000772138
0.00141001
0.00193972
0.00240158
0.00283469
7.72916e-05
0.000689431
0.00124088
0.00172586
0.0021633
0.00258118
7.30509e-05
0.000580376
0.0010276
0.00144591
0.00182988
0.0021928
6.76535e-05
0.00044516
0.000777746
0.00111126
0.00141733
0.00167693
6.06129e-05
0.000289312
0.000507702
0.000744909
0.00095987
0.00106704
4.98413e-05
0.000130205
0.000246592
0.000386098
0.00051453
0.000450891
2.01526e-06
1.92156e-05
5.4885e-05
0.000108517
0.000172178
4.74679e-05
0.000229666
0.000767825
0.00144872
0.0020767
0.00256085
0.00292156
0.00315023
0.00324374
0.00320653
0.00305473
0.00282226
0.00257077
0.00239969
0.00243049
0.0027312
0.00324142
0.00380208
0.00426975
0.00458785
0.00476472
0.00485944
0.00492414
0.00500217
0.00510921
0.000253354
0.000639618
0.00122542
0.00184601
0.0023244
0.00270642
0.00297292
0.00311317
0.00312544
0.00301979
0.00282281
0.00258591
0.00239598
0.00237034
0.00259903
0.00306287
0.0036288
0.004145
0.00453108
0.00478116
0.00491867
0.00502719
0.00511726
0.00522374
0.000335772
0.000611273
0.00112671
0.00170452
0.00216663
0.0025518
0.00284015
0.00301454
0.00306677
0.00300062
0.00283565
0.00261423
0.00241181
0.00233888
0.00249928
0.00290883
0.00346302
0.00400726
0.00443875
0.00473653
0.00491168
0.00504144
0.00514507
0.00522955
0.00047638
0.000670696
0.00110724
0.00164753
0.00209152
0.00246771
0.00276442
0.0029599
0.0030406
0.00300465
0.0028653
0.00265703
0.00244527
0.00233234
0.00242961
0.00278132
0.00331205
0.00387004
0.00433155
0.00465686
0.00486457
0.00499013
0.00510302
0.00517018
0.000679026
0.00080546
0.00117688
0.00168062
0.00209419
0.0024568
0.00275196
0.0029566
0.00305372
0.00303715
0.00291498
0.0027151
0.00249429
0.00234641
0.00238567
0.00267846
0.00317733
0.00373872
0.00422117
0.00456386
0.00478254
0.00491395
0.00500373
0.00505928
0.000918368
0.00101146
0.00131581
0.00177886
0.00217212
0.00251695
0.00280316
0.00300679
0.00310888
0.00310046
0.00298586
0.00278799
0.00255627
0.00237646
0.00236246
0.002597
0.0030581
0.00361452
0.00411209
0.00446718
0.00468337
0.00480729
0.0048724
0.00492287
0.00117355
0.00125326
0.00151819
0.00192066
0.00230429
0.00264154
0.0029137
0.00310798
0.00320483
0.00319385
0.0030772
0.00287412
0.00262818
0.00241793
0.00235502
0.00253364
0.00295356
0.00349801
0.00400572
0.00437233
0.00458602
0.00469418
0.0047454
0.00476916
0.00143552
0.00152186
0.00177482
0.00212317
0.00247778
0.00281083
0.00307593
0.00325443
0.00333732
0.00331426
0.00318654
0.00297104
0.00270693
0.00246676
0.0023591
0.00248566
0.00286363
0.00339074
0.00390323
0.00428008
0.00449525
0.00458942
0.00461921
0.00462671
0.0017026
0.00181025
0.00206194
0.00238965
0.00270934
0.00301644
0.00327261
0.00343815
0.00350007
0.00345707
0.0033104
0.00307592
0.00278975
0.00251981
0.00237153
0.00245122
0.00278902
0.00329561
0.00380786
0.00419385
0.00441146
0.00449266
0.00450404
0.00449867
0.00197824
0.00212073
0.0023798
0.00269366
0.00299868
0.00326836
0.00349577
0.00364326
0.00368529
0.0036167
0.00344454
0.0031857
0.00287426
0.00257485
0.0023903
0.00242938
0.00273113
0.0032169
0.00372673
0.00411639
0.00433237
0.00440234
0.00439966
0.00438507
0.002255
0.0024375
0.00271418
0.00302919
0.00331795
0.00356683
0.00374892
0.00386203
0.00387667
0.00378189
0.00358276
0.00329666
0.0029582
0.0026304
0.00241432
0.00241985
0.00269198
0.00315825
0.00365816
0.0040446
0.00425471
0.004317
0.00430425
0.00428333
0.0025322
0.00276013
0.00305583
0.00337601
0.00365901
0.00388363
0.00403419
0.0040962
0.00407045
0.00394213
0.00371154
0.00339666
0.00303186
0.00267947
0.0024392
0.00242045
0.00266873
0.0031148
0.00360179
0.00397835
0.0041813
0.00423752
0.00421668
0.00419092
0.00280218
0.00308097
0.0034001
0.00372443
0.00400271
0.00420927
0.00432899
0.00435118
0.00427293
0.00410008
0.00383528
0.00349189
0.00310253
0.00272919
0.00247032
0.00243345
0.00266327
0.00309139
0.00356086
0.00392395
0.00411831
0.00416581
0.00413672
0.00410639
0.00305128
0.00338576
0.00373265
0.00406305
0.00433131
0.00452323
0.00461728
0.0046067
0.00449026
0.00427167
0.00396519
0.00358747
0.00317213
0.00277987
0.00250783
0.00246043
0.0026786
0.00309042
0.00354153
0.00388831
0.00406763
0.00410223
0.00406421
0.0040291
0.00325927
0.00365322
0.00403228
0.0043717
0.00463134
0.00480319
0.00487473
0.00483697
0.00468984
0.00443959
0.00409726
0.00368597
0.00324312
0.00283185
0.00255081
0.00250116
0.00271508
0.00311525
0.00354751
0.00387049
0.00402749
0.00404639
0.00399913
0.0039592
0.00340002
0.00385564
0.00427134
0.00462497
0.00488019
0.00503469
0.00508099
0.00501582
0.00483938
0.00455913
0.00418895
0.00375259
0.00328947
0.00286842
0.00259023
0.00255059
0.00277117
0.00316459
0.00357372
0.0038659
0.00399603
0.00399778
0.00394168
0.00389721
0.00344421
0.00396212
0.00441996
0.00479537
0.00505396
0.00519884
0.00522588
0.00513496
0.00493032
0.00462102
0.00422316
0.00376368
0.00328743
0.00286853
0.00260935
0.00259751
0.00283823
0.00322959
0.003614
0.00387158
0.003972
0.00395605
0.00389196
0.00384361
0.00336477
0.00394538
0.00445236
0.00485961
0.00513258
0.00527908
0.005298
0.00519178
0.00496683
0.0046347
0.00421432
0.00373664
0.00325283
0.00284483
0.00261764
0.00264735
0.00291781
0.00331007
0.00366711
0.00388599
0.00395439
0.00392074
0.00384987
0.00379857
0.00314701
0.00379123
0.00435645
0.00480745
0.00510776
0.00526924
0.0052934
0.00518487
0.00495188
0.00460782
0.00417423
0.00368623
0.00320215
0.00281341
0.00262789
0.00270797
0.00301253
0.00340399
0.00372896
0.00390564
0.00394133
0.00389118
0.00381512
0.00376204
0.00279212
0.0035106
0.00414444
0.00465064
0.00499096
0.00518065
0.00522378
0.00512698
0.00489979
0.00455697
0.00412227
0.00363473
0.00315866
0.00279463
0.00265254
0.00278036
0.00311286
0.00349711
0.00378729
0.00392334
0.00392995
0.00386666
0.00378762
0.00373399
0.00232829
0.00313919
0.00385581
0.00442803
0.0048179
0.00504622
0.00511981
0.00504768
0.00484005
0.00451254
0.00409125
0.00361812
0.00315643
0.00281124
0.00269251
0.00284115
0.00318048
0.00355219
0.00381749
0.00392778
0.00391653
0.00384665
0.00376755
0.00371457
0.00182149
0.00275169
0.00356278
0.00420536
0.00464756
0.00491799
0.00502812
0.00498943
0.00481377
0.00451746
0.00412207
0.00366334
0.00320969
0.00285926
0.00272023
0.00284097
0.00315777
0.00351857
0.00378133
0.00389585
0.00389318
0.0038301
0.00375533
0.00370449
0.00136644
0.00244146
0.00334955
0.00405396
0.00454169
0.00485064
0.00499592
0.00499091
0.00484883
0.00458532
0.00422132
0.00378917
0.00334245
0.00296401
0.00275641
0.00279124
0.00304578
0.00339467
0.00368639
0.00383989
0.00386578
0.00381906
0.00375202
0.00370407
0.00108229
0.00231693
0.00329625
0.00403122
0.00454391
0.0048766
0.00504735
0.00507025
0.00495843
0.0047263
0.00439228
0.00398287
0.00353919
0.00312556
0.00283232
0.00274921
0.00290361
0.00321673
0.0035394
0.00375223
0.00382876
0.00381127
0.0037568
0.00371339
6.43938e-06
4.24292e-05
0.000104264
0.000174299
4.57882e-05
5.5625e-05
0.000104416
0.000160566
0.000321101
0.000480482
0.000438746
0.000587455
8.29162e-05
0.000323745
0.000591368
0.000852269
0.000996988
0.00130556
9.06685e-05
0.000484882
0.000860719
0.00122324
0.00152118
0.00193747
9.64215e-05
0.000628602
0.00110878
0.00155641
0.00195775
0.00241984
0.000100807
0.000746728
0.00132141
0.00183205
0.00228702
0.00274471
0.000104183
0.000838163
0.00149098
0.00204027
0.002506
0.00292972
0.000106762
0.000904065
0.00161553
0.00217943
0.00262677
0.00299522
0.000108674
0.00094683
0.00169673
0.00225434
0.00266075
0.00296111
0.00011
0.000969063
0.00173808
0.00227287
0.00262389
0.00285139
0.000110789
0.000972986
0.00174479
0.00224492
0.00253261
0.00268807
0.000111044
0.000960313
0.00172154
0.00217985
0.00240367
0.00248899
0.000110907
0.000931653
0.00167316
0.00208699
0.00225018
0.00226973
0.000110424
0.000886161
0.00160336
0.00197431
0.00208222
0.00204217
0.000109594
0.000828599
0.0015158
0.00184825
0.00190848
0.00181795
0.000108358
0.000762516
0.00141355
0.00171351
0.00173448
0.00160231
0.000106651
0.000690613
0.00129885
0.00157246
0.0015634
0.00140039
0.000104383
0.000614868
0.00117284
0.00142527
0.00139648
0.00121456
0.000101406
0.000536295
0.00103533
0.00126943
0.0012317
0.00104497
9.7453e-05
0.00045431
0.000884705
0.0010991
0.0010611
0.00088574
9.20299e-05
0.000367843
0.000717686
0.000904631
0.000870049
0.000725346
8.41997e-05
0.000270505
0.000523922
0.000677093
0.000635529
0.000540228
0.00010833
0.000153067
0.000292621
0.000414107
0.00033098
0.000301154
6.08871e-06
2.14627e-05
6.79509e-05
0.000155726
4.6144e-05
4.89646e-05
0.00114728
0.00244335
0.00342805
0.00414466
0.00465424
0.00499117
0.00517318
0.00521337
0.00512346
0.00491605
0.00460659
0.00421628
0.00377652
0.00333642
0.0029708
0.00277315
0.00280939
0.00305432
0.00338368
0.0036518
0.00378693
0.00380679
0.00376916
0.00373218
0.00168453
0.00279326
0.00368635
0.00434801
0.00482989
0.00515391
0.00533416
0.00538107
0.00530412
0.00511356
0.00482199
0.00444638
0.00401137
0.00355613
0.00314143
0.00285457
0.00278252
0.0029422
0.00324998
0.00355514
0.00374552
0.00380586
0.00378835
0.00375995
0.00225158
0.00319761
0.00397284
0.00456807
0.00500909
0.00531017
0.00548057
0.00552727
0.00545694
0.00527726
0.00499827
0.00463376
0.00420438
0.00374471
0.00330035
0.00294361
0.00277935
0.00286323
0.00313865
0.00346644
0.00370856
0.00381008
0.00381446
0.00379644
0.00274212
0.00354538
0.00421358
0.00473964
0.00513666
0.00541206
0.00557021
0.00561431
0.00554808
0.00537628
0.00510764
0.00475264
0.00432108
0.00382569
0.00333123
0.00293744
0.00275034
0.0028236
0.00309819
0.00343555
0.00369918
0.00382832
0.00385053
0.00384248
0.00310267
0.00378628
0.00435854
0.00482025
0.00517663
0.0054291
0.00557718
0.00561995
0.00555889
0.00539402
0.00512381
0.00475149
0.00428612
0.00377935
0.00329208
0.00291145
0.00273042
0.00281105
0.00310699
0.00345737
0.00373074
0.00386989
0.00390111
0.00389977
0.00332348
0.00389783
0.00438604
0.00479177
0.00511453
0.00535002
0.00549306
0.00553741
0.00547341
0.00529921
0.00501219
0.00462419
0.00417711
0.00370494
0.00324492
0.00287602
0.00270839
0.00280809
0.00312766
0.00350646
0.00378765
0.00393021
0.00396552
0.00396814
0.00341021
0.00388211
0.00429698
0.00465642
0.00495403
0.0051796
0.00531727
0.00535414
0.00528297
0.00510098
0.00482478
0.00447605
0.00406795
0.00361438
0.00316866
0.00282086
0.00268181
0.00281615
0.00316843
0.00357421
0.00386536
0.00400589
0.00404194
0.00404639
0.00337659
0.0037553
0.00410753
0.00443061
0.00471123
0.00492618
0.00505567
0.00509186
0.00502897
0.00487513
0.0046425
0.00432844
0.00393484
0.00349406
0.00306153
0.00274093
0.00264844
0.00283348
0.00322781
0.00365908
0.00396162
0.00409552
0.00412895
0.00413313
0.00324678
0.00354188
0.00384219
0.00413808
0.00440302
0.0046087
0.00474585
0.00479778
0.00476994
0.00466208
0.00445489
0.0041458
0.00375436
0.00331656
0.00290744
0.00263727
0.00261551
0.00287027
0.00330448
0.00375386
0.00406458
0.00419449
0.00422438
0.00422695
0.00304707
0.00326869
0.00352744
0.00380119
0.00405243
0.00426732
0.00442135
0.00450738
0.00452019
0.00442638
0.00422255
0.00391384
0.0035283
0.00311423
0.00274828
0.0025452
0.00260662
0.00293525
0.00340787
0.00385971
0.00416935
0.00429728
0.00432525
0.0043266
0.00280198
0.00296021
0.00318597
0.00343917
0.00369567
0.00392453
0.00410182
0.00422712
0.00425021
0.00415928
0.00395637
0.00366062
0.00329724
0.00291542
0.00260214
0.002477
0.00262733
0.00302691
0.00353177
0.00397519
0.00427155
0.00440065
0.00443
0.00443216
0.00253165
0.00263373
0.00283143
0.00308421
0.00334944
0.00359004
0.00380789
0.00394176
0.00396574
0.00388018
0.00369283
0.00341521
0.00307615
0.00273206
0.00247974
0.00243957
0.00267894
0.00314166
0.00366807
0.00409906
0.00437362
0.00450498
0.00453979
0.00454596
0.00224745
0.00230159
0.00249159
0.00275005
0.00302128
0.00329897
0.00352668
0.00365827
0.0036898
0.00361905
0.00344688
0.00318737
0.00287412
0.00257195
0.00238681
0.002435
0.00275934
0.00327434
0.00381133
0.0042289
0.00448127
0.00461298
0.0046573
0.0046713
0.00196478
0.00198585
0.00217635
0.00244343
0.00274256
0.00303958
0.00326226
0.00339976
0.00344403
0.00338565
0.00322647
0.00298347
0.00269615
0.00243889
0.00232532
0.0024625
0.0028646
0.00341891
0.00395526
0.00435459
0.00459315
0.00472224
0.00478339
0.00480904
0.00168998
0.00168778
0.00189032
0.0021807
0.00251648
0.00280919
0.00303416
0.00318293
0.0032367
0.00318661
0.00303627
0.00280655
0.0025442
0.00233423
0.00229569
0.00252048
0.00299063
0.00357004
0.00409556
0.00447558
0.00470879
0.00484191
0.0049112
0.00495856
0.00142542
0.00141404
0.00164203
0.00198319
0.00232861
0.00262174
0.00285884
0.00301514
0.00307306
0.00302515
0.00287776
0.00265696
0.00241846
0.00225869
0.0022985
0.00260795
0.00313431
0.00372434
0.00423055
0.00459043
0.0048196
0.00495372
0.00504031
0.00509763
0.00117397
0.00117257
0.00144568
0.00183754
0.00218902
0.00249693
0.00274175
0.00289989
0.00295472
0.00290117
0.00274972
0.00253334
0.00231866
0.00221363
0.00233543
0.00272486
0.00329368
0.00387992
0.00435907
0.00469568
0.00491292
0.00503523
0.00514767
0.00521004
0.000940887
0.000973816
0.00131152
0.00174478
0.00211431
0.00243557
0.00268405
0.00283683
0.00287969
0.00281158
0.0026489
0.00243355
0.00224505
0.00220158
0.00240912
0.0028716
0.00346718
0.00403482
0.0044773
0.00478059
0.00496419
0.00509011
0.00519828
0.00527988
0.00073614
0.000839356
0.00124519
0.00171564
0.00210632
0.00243757
0.00268317
0.00282162
0.00284268
0.00275104
0.00257093
0.00235556
0.00219889
0.00222614
0.0025223
0.00304767
0.00365185
0.00418458
0.00457818
0.0048366
0.00497799
0.00509505
0.00518728
0.00529534
0.000573263
0.000764847
0.00122512
0.00174951
0.00216031
0.00249759
0.00273253
0.00284675
0.0028361
0.00271294
0.00251137
0.00229814
0.00218271
0.00229129
0.00267614
0.0032494
0.00384055
0.00431857
0.00464445
0.00483621
0.00493677
0.00501691
0.00509022
0.0051809
0.000470247
0.000725774
0.00126557
0.00183868
0.00227081
0.00260879
0.00282336
0.00290269
0.00285113
0.00269039
0.00246625
0.00226135
0.00220013
0.0024
0.0028678
0.00346746
0.00402035
0.00442196
0.00466133
0.00476979
0.00482086
0.00484596
0.00492055
0.00503916
0.000396263
0.000759536
0.00138992
0.00198243
0.00243478
0.0027636
0.00294537
0.00297887
0.00287871
0.00267705
0.00243302
0.00224713
0.00225545
0.00255257
0.00308871
0.00368677
0.00417547
0.00448337
0.00462713
0.00466322
0.00465498
0.0046397
0.00465316
0.00472608
0.000353583
0.000847811
0.00155855
0.00218132
0.00265023
0.00295292
0.00308688
0.00306438
0.00291047
0.00266812
0.00241127
0.00225947
0.00235244
0.00274484
0.003325
0.00389023
0.00429319
0.00449958
0.0045472
0.00448278
0.004401
0.00431536
0.00419858
0.00412313
0.000371526
0.000987878
0.0018347
0.00246972
0.00291357
0.00316381
0.00323474
0.00314877
0.00293965
0.00266116
0.00240318
0.00230358
0.00249208
0.00296749
0.00356116
0.00406573
0.00437071
0.00447984
0.00443923
0.00434767
0.004202
0.004013
0.00375196
0.00333114
4.08805e-06
3.71429e-05
0.000104958
0.000190891
5.18413e-05
6.87034e-05
7.95928e-05
0.000185314
0.000348746
0.000424811
0.000482995
0.000657855
7.3274e-05
0.000353482
0.000626899
0.000849082
0.00104375
0.00132552
8.07187e-05
0.000499063
0.000886121
0.00122662
0.00153714
0.00190648
8.65722e-05
0.000614332
0.00111271
0.00154829
0.00195255
0.0023673
9.11254e-05
0.000702115
0.00130291
0.00182227
0.00229513
0.00274165
9.45894e-05
0.000768224
0.00145585
0.00204659
0.0025736
0.0030483
9.71298e-05
0.000818241
0.00157455
0.00222239
0.00279232
0.00329073
9.88878e-05
0.000855948
0.00166039
0.00235084
0.00295378
0.0034715
9.99868e-05
0.000882974
0.00171528
0.0024332
0.00305962
0.00359231
0.000100542
0.000899955
0.00174043
0.00247057
0.00311151
0.00365406
0.000100663
0.000905671
0.00173631
0.00246376
0.00311052
0.00365933
0.000100477
0.000898338
0.00170296
0.00241337
0.003058
0.00361078
9.99386e-05
0.000877796
0.00164021
0.0023206
0.00295561
0.00351105
9.89304e-05
0.000844679
0.00154733
0.00218582
0.00280549
0.00336307
9.73717e-05
0.000799168
0.00142803
0.00201332
0.00261024
0.00316989
9.51853e-05
0.000740991
0.00128335
0.00180653
0.00237217
0.00293444
9.22713e-05
0.000669536
0.00111708
0.00157053
0.00209695
0.00265906
8.849e-05
0.000584777
0.000934567
0.00131236
0.00178768
0.00234475
8.36455e-05
0.000486457
0.000742331
0.00104061
0.00144936
0.00198943
7.74852e-05
0.000375051
0.000547416
0.000765369
0.00108928
0.00158801
6.97195e-05
0.000251764
0.000356822
0.000498618
0.000721114
0.00112782
7.07301e-05
0.00012123
0.000178319
0.000256566
0.000374039
0.000610622
3.1715e-06
1.78207e-05
4.95717e-05
8.88921e-05
0.000132765
0.000181385
0.000498303
0.00140293
0.0022621
0.00283303
0.0032027
0.00337746
0.00337533
0.00322322
0.00296199
0.0026566
0.00241317
0.0023838
0.00266925
0.00320611
0.00378446
0.00421039
0.00441553
0.0044411
0.00437656
0.0042506
0.00409074
0.00388138
0.00363276
0.00326616
0.00126245
0.00212251
0.00274625
0.00320568
0.00348202
0.00357401
0.00349729
0.00328184
0.00297633
0.00265802
0.00244576
0.00249526
0.00287511
0.003454
0.00399364
0.00432913
0.00444371
0.00441427
0.00429499
0.00414485
0.00397688
0.0038062
0.00357105
0.00326996
0.00190109
0.00265237
0.00316989
0.00353757
0.00372855
0.00374156
0.0035944
0.00332245
0.00298462
0.00266681
0.00250124
0.00264981
0.00311786
0.00371018
0.00418479
0.00442254
0.00445697
0.00438555
0.00425008
0.0041002
0.00393958
0.00377541
0.00355565
0.0033037
0.00242976
0.00309568
0.00353617
0.00382432
0.0039367
0.00387598
0.00366469
0.00334563
0.00298961
0.00268594
0.00258939
0.00284571
0.00338273
0.00395633
0.00434596
0.00448972
0.00446423
0.00436304
0.0042147
0.00406342
0.00391995
0.00375202
0.00355342
0.00334806
0.0028855
0.00347039
0.00384821
0.00406461
0.00410422
0.00397577
0.00370827
0.00335401
0.00299344
0.00272016
0.00271467
0.00307511
0.00365316
0.00417853
0.00447265
0.00453159
0.00446419
0.00433571
0.00418877
0.00403361
0.00390575
0.00373892
0.00356161
0.00339396
0.00326954
0.00378449
0.00410696
0.00425752
0.00423015
0.00404085
0.00372659
0.00335198
0.00299664
0.00277405
0.00287682
0.0033268
0.00391298
0.00436692
0.00456447
0.00455179
0.00445256
0.0043132
0.00415766
0.00401759
0.0038848
0.00372863
0.00357221
0.00343221
0.00357969
0.00404091
0.00431276
0.00440278
0.00431459
0.00407227
0.00372197
0.00334174
0.00300476
0.00285408
0.00306862
0.00358711
0.00414837
0.0045157
0.00462243
0.00455041
0.00442335
0.00427932
0.00412331
0.00400009
0.00386058
0.00371667
0.00357969
0.00345813
0.00382197
0.00424116
0.00446615
0.00450088
0.00435854
0.00407203
0.00369804
0.00332529
0.00302138
0.00296287
0.00328218
0.00383981
0.00434874
0.00462274
0.00464912
0.00453011
0.00438055
0.00423523
0.00409175
0.00396621
0.00383259
0.00370072
0.00358013
0.00347039
0.00399994
0.00438628
0.0045681
0.0045531
0.00436387
0.004043
0.00366058
0.00330101
0.00304929
0.003098
0.00350933
0.00407278
0.00450841
0.00468898
0.00464749
0.0044941
0.00432652
0.00418172
0.00405013
0.00392359
0.00379878
0.00367938
0.00357202
0.00347073
0.00411708
0.00447734
0.00462023
0.0045615
0.00433318
0.0039885
0.0036122
0.00327455
0.00309416
0.00325636
0.00373881
0.00427682
0.00462528
0.00471635
0.00461804
0.00444011
0.00426627
0.00412394
0.00399586
0.00387528
0.00375987
0.00365246
0.0035559
0.00346249
0.00417724
0.00451589
0.00462487
0.0045289
0.00426994
0.00391295
0.00355463
0.00325101
0.0031603
0.00343307
0.00395881
0.00444586
0.00470031
0.00470611
0.00456412
0.0043729
0.00420129
0.00405996
0.00393623
0.00382274
0.00371723
0.00362095
0.00353383
0.0034494
0.00418323
0.00450462
0.00458521
0.00445891
0.00417848
0.00382307
0.00348617
0.00323341
0.00324869
0.00362229
0.00416101
0.00457812
0.00473365
0.00466599
0.00449211
0.00429834
0.00412988
0.00399177
0.00387356
0.00376798
0.00367247
0.00358654
0.00350855
0.00343463
0.00413809
0.00444707
0.00450523
0.00435594
0.00406377
0.00372369
0.00340945
0.00322691
0.00335981
0.00381597
0.00433834
0.00467191
0.00473068
0.0046053
0.00441019
0.00421724
0.00405463
0.00392215
0.00381057
0.00371336
0.00362758
0.00355144
0.00348284
0.0034204
0.00404547
0.00434755
0.00438968
0.00422525
0.00393179
0.00361611
0.00333348
0.00323968
0.00349316
0.0040059
0.00448592
0.00472573
0.0046994
0.00453037
0.00432329
0.00413441
0.00397944
0.00385407
0.00374986
0.00366111
0.00358464
0.00351785
0.00345891
0.00340802
0.00390956
0.00421101
0.00424407
0.00407312
0.00379154
0.00349743
0.00326347
0.00327777
0.00364563
0.00418508
0.00460188
0.00473999
0.00464565
0.00444702
0.00423599
0.00405401
0.00390769
0.00379016
0.00369366
0.00361318
0.00354543
0.00348758