/*--------------------------------*- C++ -*----------------------------------*\
  =========                 |
  \\      /  F ield         | OpenFOAM: The Open Source CFD Toolbox
   \\    /   O peration     | Website:  https://openfoam.org
    \\  /    A nd           | Version:  11
     \\/     M anipulation  |
\*---------------------------------------------------------------------------*/
FoamFile
{
    format      ascii;
    class       surfaceScalarField;
    location    "0.02";
    object      phi;
}
// * * * * * * * * * * * * * * * * * * * * * * * * * * * * * * * * * * * * * //

dimensions      [0 3 -1 0 0 0 0];

internalField   nonuniform List<scalar> 
5640
(
1.61909e-07
-1.61909e-07
-8.64183e-07
1.02609e-06
-2.53154e-06
1.66736e-06
-4.56423e-06
2.03269e-06
-6.74922e-06
2.18499e-06
2.98652e-06
-9.73573e-06
-8.42611e-08
-7.76479e-08
-1.23913e-06
2.18096e-06
-2.91052e-06
3.33875e-06
-4.87035e-06
3.99252e-06
-7.07178e-06
4.38642e-06
5.05431e-06
-9.13957e-06
-2.81792e-07
2.04145e-07
-1.42515e-06
3.32432e-06
-3.0015e-06
4.9151e-06
-4.81796e-06
5.80897e-06
-6.79839e-06
6.36685e-06
6.87647e-06
-8.62055e-06
-4.41547e-07
6.45692e-07
-1.50876e-06
4.39153e-06
-2.94949e-06
6.35584e-06
-4.5942e-06
7.45368e-06
-6.35219e-06
8.12484e-06
8.55369e-06
-8.02941e-06
-5.45039e-07
1.19073e-06
-1.51421e-06
5.3607e-06
-2.80155e-06
7.64317e-06
-4.26984e-06
8.92197e-06
-5.83557e-06
9.69057e-06
1.00954e-05
-7.37732e-06
-5.93977e-07
1.78471e-06
-1.45386e-06
6.22059e-06
-2.58019e-06
8.7695e-06
-3.87337e-06
1.02151e-05
-5.26462e-06
1.10818e-05
1.1506e-05
-6.67521e-06
-5.95093e-07
2.3798e-06
-1.33757e-06
6.96307e-06
-2.29986e-06
9.73179e-06
-3.42013e-06
1.13354e-05
-4.64666e-06
1.23083e-05
1.27872e-05
-5.92788e-06
-5.55747e-07
2.93555e-06
-1.17384e-06
7.58117e-06
-1.97113e-06
1.05291e-05
-2.92028e-06
1.22846e-05
-3.98721e-06
1.33753e-05
1.39386e-05
-5.13857e-06
-4.82957e-07
3.4185e-06
-9.70375e-07
8.06858e-06
-1.6023e-06
1.1161e-05
-2.3811e-06
1.30633e-05
-3.29036e-06
1.42845e-05
1.49582e-05
-4.3099e-06
-3.83283e-07
3.80179e-06
-7.3448e-07
8.41978e-06
-1.20036e-06
1.16269e-05
-1.80822e-06
1.36712e-05
-2.55928e-06
1.50356e-05
1.58429e-05
-3.44399e-06
-2.62914e-07
4.0647e-06
-4.73445e-07
8.63031e-06
-7.71872e-07
1.19253e-05
-1.20648e-06
1.41058e-05
-1.79662e-06
1.56257e-05
1.65889e-05
-2.5426e-06
-1.27783e-07
4.19248e-06
-1.94537e-07
8.69707e-06
-3.2316e-07
1.20539e-05
-5.80365e-07
1.4363e-05
-1.00472e-06
1.60501e-05
1.71912e-05
-1.60706e-06
1.62437e-08
4.17624e-06
9.48514e-08
8.61846e-06
1.39262e-07
1.20095e-05
6.55562e-08
1.44367e-05
-1.85831e-07
1.63015e-05
1.76437e-05
-6.38381e-07
1.62971e-07
4.01327e-06
3.87105e-07
8.39433e-06
6.08037e-07
1.17886e-05
7.26134e-07
1.43186e-05
6.57647e-07
1.637e-05
1.79386e-05
3.62818e-07
3.05567e-07
3.7077e-06
6.73734e-07
8.02616e-06
1.07458e-06
1.13878e-05
1.39512e-06
1.39981e-05
1.52302e-06
1.62421e-05
1.8065e-05
1.39663e-06
4.35865e-07
3.27184e-06
9.44535e-07
7.51749e-06
1.52853e-06
1.08038e-05
2.06482e-06
1.34618e-05
2.4071e-06
1.58998e-05
1.80082e-05
2.46385e-06
5.4395e-07
2.72789e-06
1.18749e-06
6.87395e-06
1.9574e-06
1.00338e-05
2.72548e-06
1.26937e-05
3.30599e-06
1.53193e-05
1.77471e-05
3.56706e-06
6.17876e-07
2.11001e-06
1.38879e-06
6.10304e-06
2.34631e-06
9.07632e-06
3.3647e-06
1.16753e-05
4.21466e-06
1.44693e-05
1.72504e-05
4.71139e-06
6.44245e-07
1.46577e-06
1.53329e-06
5.21399e-06
2.67775e-06
7.93186e-06
3.96641e-06
1.03867e-05
5.1261e-06
1.33096e-05
1.64702e-05
5.90636e-06
6.10356e-07
8.55409e-07
1.6055e-06
4.21885e-06
2.93176e-06
6.6056e-06
4.50887e-06
8.80956e-06
6.02983e-06
1.17887e-05
1.53302e-05
7.16974e-06
5.08392e-07
3.47017e-07
1.59041e-06
3.13683e-06
3.08531e-06
5.1107e-06
4.96026e-06
6.93461e-06
6.91058e-06
9.83835e-06
1.37004e-05
8.54038e-06
3.41839e-07
5.1784e-09
1.47173e-06
2.00694e-06
3.11077e-06
3.47166e-06
5.26991e-06
4.77547e-06
7.75307e-06
7.35519e-06
1.13123e-05
1.01412e-05
1.31328e-07
-1.2615e-07
1.22502e-06
9.13252e-07
2.96543e-06
1.73125e-06
5.34617e-06
2.39473e-06
8.51882e-06
4.18254e-06
7.41487e-06
1.24162e-05
-1.2615e-07
7.87102e-07
2.51835e-06
4.91308e-06
9.09561e-06
1.65105e-05
-1.10008e-05
6.01249e-06
-4.74742e-06
-1.32138e-05
4.94801e-06
-2.73499e-06
-1.54909e-05
3.78414e-06
-1.50703e-06
-1.77827e-05
2.63159e-06
-3.39793e-07
-2.00905e-05
1.47884e-06
8.28951e-07
-2.24198e-05
3.67586e-07
1.96171e-06
-2.47726e-05
-6.53735e-07
3.00649e-06
-2.71475e-05
-1.56354e-06
3.93849e-06
-2.95439e-05
-2.38165e-06
4.778e-06
-3.19594e-05
-3.14742e-06
5.56298e-06
-3.4389e-05
-3.89523e-06
6.32481e-06
-3.68251e-05
-4.64409e-06
7.0802e-06
-3.92602e-05
-5.39996e-06
7.83506e-06
-4.16877e-05
-6.16404e-06
8.59155e-06
-4.41017e-05
-6.93769e-06
9.35164e-06
-4.64963e-05
-7.72275e-06
1.01173e-05
-4.8866e-05
-8.52008e-06
1.08898e-05
-5.12064e-05
-9.3285e-06
1.16688e-05
-5.35143e-05
-1.01447e-05
1.24526e-05
-5.5789e-05
-1.09641e-05
1.32388e-05
-5.80313e-05
-1.17829e-05
1.40253e-05
-6.02438e-05
-1.25985e-05
1.4811e-05
-6.24301e-05
-1.34084e-05
1.55947e-05
-1.42087e-05
1.63739e-05
-1.09605e-05
7.83345e-06
-1.30401e-05
7.02754e-06
-1.52269e-05
5.97103e-06
-1.74626e-05
4.86726e-06
-1.97354e-05
3.75161e-06
-2.20413e-05
2.67348e-06
-2.43742e-05
1.6792e-06
-2.67272e-05
7.89427e-07
-2.90974e-05
-1.1456e-08
-3.14837e-05
-7.61041e-07
-3.38835e-05
-1.49549e-06
-3.62908e-05
-2.23682e-06
-3.86984e-05
-2.99231e-06
-4.10996e-05
-3.76283e-06
-4.34882e-05
-4.54912e-06
-4.58582e-05
-5.35273e-06
-4.82041e-05
-6.17424e-06
-5.05209e-05
-7.01169e-06
-5.28053e-05
-7.86026e-06
-5.50559e-05
-8.7135e-06
-5.72733e-05
-9.56545e-06
-5.94599e-05
-1.04119e-05
-6.16196e-05
-1.12487e-05
-1.20703e-05
-1.05672e-05
9.78006e-06
-1.26233e-05
9.08367e-06
-1.47643e-05
8.112e-06
-1.69636e-05
7.06663e-06
-1.92106e-05
5.99855e-06
-2.14954e-05
4.95832e-06
-2.38071e-05
3.99086e-06
-2.6135e-05
3.11736e-06
-2.84748e-05
2.32832e-06
-3.08266e-05
1.59075e-06
-3.319e-05
8.67901e-07
-3.55614e-05
1.34595e-07
-3.79345e-05
-6.19165e-07
-4.03025e-05
-1.39484e-06
-4.26589e-05
-2.1927e-06
-4.49978e-05
-3.01391e-06
-4.73132e-05
-3.85881e-06
-4.96e-05
-4.72484e-06
-5.18543e-05
-5.60595e-06
-5.40741e-05
-6.49377e-06
-5.62593e-05
-7.38026e-06
-5.84117e-05
-8.25951e-06
-6.05351e-05
-9.12529e-06
-9.96682e-06
-9.99515e-06
1.17458e-05
-1.20253e-05
1.11138e-05
-1.41323e-05
1.0219e-05
-1.6302e-05
9.23631e-06
-1.85246e-05
8.22112e-06
-2.07867e-05
7.22052e-06
-2.30737e-05
6.2778e-06
-2.53728e-05
5.41652e-06
-2.76782e-05
4.63365e-06
-2.99905e-05
3.90305e-06
-3.23115e-05
3.18895e-06
-3.46402e-05
2.46331e-06
-3.69717e-05
1.71233e-06
-3.92994e-05
9.32829e-07
-4.16167e-05
1.24616e-07
-4.39175e-05
-7.13075e-07
-4.6196e-05
-1.58037e-06
-4.84464e-05
-2.47439e-06
-5.06643e-05
-3.38811e-06
-5.28466e-05
-4.31149e-06
-5.49924e-05
-5.23439e-06
-5.71028e-05
-6.1491e-06
-5.91797e-05
-7.04846e-06
-7.905e-06
-9.30421e-06
1.36727e-05
-1.12928e-05
1.31023e-05
-1.336e-05
1.22863e-05
-1.54952e-05
1.13716e-05
-1.76877e-05
1.04136e-05
-1.99217e-05
9.45453e-06
-2.21788e-05
8.53489e-06
-2.44447e-05
7.68235e-06
-2.67114e-05
6.90036e-06
-2.89794e-05
6.17113e-06
-3.12525e-05
5.462e-06
-3.35317e-05
4.74255e-06
-3.58142e-05
3.9948e-06
-3.80941e-05
3.21271e-06
-4.03649e-05
2.39545e-06
-4.26205e-05
1.54254e-06
-4.48549e-05
6.53985e-07
-4.70621e-05
-2.67208e-07
-4.92367e-05
-1.21346e-06
-5.13749e-05
-2.17335e-06
-5.34746e-05
-3.13471e-06
-5.55358e-05
-4.08785e-06
-5.75598e-05
-5.02447e-06
-5.89166e-06
-8.52558e-06
1.55231e-05
-1.04544e-05
1.50312e-05
-1.24696e-05
1.43015e-05
-1.45598e-05
1.34618e-05
-1.67122e-05
1.2566e-05
-1.89092e-05
1.16515e-05
-2.11299e-05
1.07556e-05
-2.33569e-05
9.9094e-06
-2.55803e-05
9.12375e-06
-2.77993e-05
8.39013e-06
-3.00187e-05
7.68133e-06
-3.22416e-05
6.96551e-06
-3.44675e-05
6.22066e-06
-3.66917e-05
5.43693e-06
-3.89082e-05
4.61195e-06
-4.11109e-05
3.7452e-06
-4.32936e-05
2.83673e-06
-4.54502e-05
1.88941e-06
-4.75747e-05
9.11037e-07
-4.96622e-05
-8.58919e-08
-5.17096e-05
-1.08729e-06
-5.37165e-05
-2.08097e-06
-5.56859e-05
-3.05505e-06
-3.93858e-06
-7.67747e-06
1.72726e-05
-9.52887e-06
1.68826e-05
-1.1478e-05
1.62506e-05
-1.35104e-05
1.54942e-05
-1.56108e-05
1.46664e-05
-1.77603e-05
1.38011e-05
-1.99364e-05
1.29316e-05
-2.2118e-05
1.2091e-05
-2.42927e-05
1.12985e-05
-2.64575e-05
1.05549e-05
-2.86172e-05
9.841e-06
-3.0777e-05
9.12538e-06
-3.29385e-05
8.38213e-06
-3.50988e-05
7.59725e-06
-3.72528e-05
6.7659e-06
-3.93945e-05
5.88695e-06
-4.15181e-05
4.9603e-06
-4.36171e-05
3.98841e-06
-4.5685e-05
2.97893e-06
-4.77159e-05
1.94504e-06
-4.97059e-05
9.02698e-07
-5.16539e-05
-1.3298e-07
-5.35624e-05
-1.14657e-06
-2.05773e-06
-6.77066e-06
1.89047e-05
-8.52909e-06
1.8641e-05
-1.03984e-05
1.81198e-05
-1.23601e-05
1.74559e-05
-1.43965e-05
1.67028e-05
-1.64873e-05
1.58919e-05
-1.86091e-05
1.50533e-05
-2.07378e-05
1.42198e-05
-2.28579e-05
1.34186e-05
-2.4963e-05
1.266e-05
-2.70569e-05
1.19349e-05
-2.91465e-05
1.1215e-05
-3.12357e-05
1.04713e-05
-3.33236e-05
9.6852e-06
-3.54065e-05
8.8488e-06
-3.74792e-05
7.95963e-06
-3.95359e-05
7.01699e-06
-4.15702e-05
6.02268e-06
-4.3575e-05
4.98375e-06
-4.55434e-05
3.91351e-06
-4.74701e-05
2.82931e-06
-4.93521e-05
1.74901e-06
-5.11901e-05
6.91511e-07
-2.52593e-07
-5.81211e-06
2.04069e-05
-7.4646e-06
2.02935e-05
-9.24174e-06
1.9897e-05
-1.11208e-05
1.9335e-05
-1.30814e-05
1.86634e-05
-1.51025e-05
1.7913e-05
-1.71598e-05
1.71106e-05
-1.92276e-05
1.62876e-05
-2.12864e-05
1.54774e-05
-2.33259e-05
1.46995e-05
-2.53477e-05
1.39566e-05
-2.73598e-05
1.32272e-05
-2.93686e-05
1.248e-05
-3.13755e-05
1.16921e-05
-3.33786e-05
1.08519e-05
-3.53736e-05
9.95465e-06
-3.73552e-05
8.99862e-06
-3.93171e-05
7.98456e-06
-4.12518e-05
6.91849e-06
-4.31515e-05
5.81315e-06
-4.50087e-05
4.68658e-06
-4.68187e-05
3.55901e-06
-4.85803e-05
2.45304e-06
1.47066e-06
-4.80677e-06
2.17697e-05
-6.34296e-06
2.18297e-05
-8.01751e-06
2.15715e-05
-9.80322e-06
2.11207e-05
-1.16775e-05
2.05377e-05
-1.36182e-05
1.98537e-05
-1.5601e-05
1.90934e-05
-1.75993e-05
1.82859e-05
-1.95895e-05
1.74675e-05
-2.15572e-05
1.66673e-05
-2.35007e-05
1.59001e-05
-2.54281e-05
1.51546e-05
-2.73482e-05
1.44001e-05
-2.92654e-05
1.36093e-05
-3.11794e-05
1.27659e-05
-3.30875e-05
1.18628e-05
-3.49853e-05
1.08964e-05
-3.68665e-05
9.86578e-06
-3.87236e-05
8.77559e-06
-4.05477e-05
7.63728e-06
-4.23298e-05
6.46863e-06
-4.40624e-05
5.29163e-06
-4.5742e-05
4.13264e-06
3.10588e-06
-3.75854e-06
2.29857e-05
-5.17053e-06
2.32417e-05
-6.73418e-06
2.31352e-05
-8.41764e-06
2.28042e-05
-1.01961e-05
2.23162e-05
-1.20469e-05
2.17045e-05
-1.39456e-05
2.09921e-05
-1.58654e-05
2.02056e-05
-1.77791e-05
1.93813e-05
-1.96686e-05
1.85568e-05
-2.15277e-05
1.77592e-05
-2.33635e-05
1.69903e-05
-2.51869e-05
1.62235e-05
-2.70053e-05
1.54277e-05
-2.88209e-05
1.45815e-05
-3.06323e-05
1.36742e-05
-3.24365e-05
1.27006e-05
-3.42282e-05
1.16574e-05
-3.59994e-05
1.05469e-05
-3.77409e-05
9.37875e-06
-3.94418e-05
8.16947e-06
-4.10919e-05
6.94179e-06
-4.26847e-05
5.72544e-06
4.64736e-06
-2.67062e-06
2.40492e-05
-3.95304e-06
2.45241e-05
-5.39972e-06
2.45818e-05
-6.97393e-06
2.43784e-05
-8.64881e-06
2.39911e-05
-1.04011e-05
2.34567e-05
-1.22067e-05
2.27977e-05
-1.40388e-05
2.20377e-05
-1.58684e-05
2.1211e-05
-1.76732e-05
2.03615e-05
-1.94419e-05
1.9528e-05
-2.11793e-05
1.87277e-05
-2.2898e-05
1.79423e-05
-2.46085e-05
1.71382e-05
-2.63158e-05
1.62888e-05
-2.80205e-05
1.53789e-05
-2.97209e-05
1.44009e-05
-3.14131e-05
1.33496e-05
-3.30897e-05
1.22235e-05
-3.47407e-05
1.10298e-05
-3.6354e-05
9.78277e-06
-3.79167e-05
8.50449e-06
-3.94184e-05
7.22706e-06
6.08996e-06
-1.54576e-06
2.49566e-05
-2.6959e-06
2.56742e-05
-4.02199e-06
2.59079e-05
-5.48198e-06
2.58384e-05
-7.04698e-06
2.55561e-05
-8.69336e-06
2.51031e-05
-1.03976e-05
2.4502e-05
-1.21334e-05
2.37735e-05
-1.38712e-05
2.29487e-05
-1.55845e-05
2.20748e-05
-1.72571e-05
2.12006e-05
-1.88899e-05
2.03605e-05
-2.04963e-05
1.95487e-05
-2.209e-05
1.87318e-05
-2.3679e-05
1.78779e-05
-2.52664e-05
1.69663e-05
-2.68522e-05
1.59867e-05
-2.84342e-05
1.49316e-05
-3.00063e-05
1.37956e-05
-3.15581e-05
1.25816e-05
-3.30768e-05
1.13015e-05
-3.45469e-05
9.97456e-06
-3.59534e-05
8.63356e-06
7.42905e-06
-3.8634e-07
2.57057e-05
-1.40441e-06
2.66923e-05
-2.60896e-06
2.71125e-05
-3.95195e-06
2.71813e-05
-5.40256e-06
2.70067e-05
-6.93704e-06
2.66376e-05
-8.53268e-06
2.60977e-05
-1.01642e-05
2.5405e-05
-1.18022e-05
2.45868e-05
-1.34172e-05
2.36898e-05
-1.4988e-05
2.27713e-05
-1.65105e-05
2.18831e-05
-1.79977e-05
2.10359e-05
-1.94659e-05
2.02001e-05
-2.09268e-05
1.93387e-05
-2.23862e-05
1.84257e-05
-2.38462e-05
1.74467e-05
-2.53064e-05
1.63918e-05
-2.67628e-05
1.52519e-05
-2.82057e-05
1.40246e-05
-2.96217e-05
1.27174e-05
-3.09934e-05
1.13463e-05
-3.2301e-05
9.94115e-06
8.66051e-06
8.05559e-07
2.62968e-05
-8.40562e-08
2.75819e-05
-1.16905e-06
2.81975e-05
-2.39461e-06
2.84069e-05
-3.72814e-06
2.83402e-05
-5.14613e-06
2.80556e-05
-6.62699e-06
2.75785e-05
-8.14689e-06
2.69249e-05
-9.67748e-06
2.61174e-05
-1.11872e-05
2.51995e-05
-1.26506e-05
2.42346e-05
-1.40577e-05
2.32902e-05
-1.54194e-05
2.23976e-05
-1.67544e-05
2.15351e-05
-1.80777e-05
2.0662e-05
-1.93985e-05
1.97465e-05
-2.07212e-05
1.87694e-05
-2.20474e-05
1.77181e-05
-2.33756e-05
1.65801e-05
-2.46982e-05
1.53472e-05
-2.60019e-05
1.40212e-05
-2.72684e-05
1.26127e-05
-2.84731e-05
1.11459e-05
9.78059e-06
2.02819e-06
2.67325e-05
1.25927e-06
2.83508e-05
2.88537e-07
2.91682e-05
-8.21696e-07
2.95171e-05
-2.03735e-06
2.95559e-05
-3.33568e-06
2.93539e-05
-4.6967e-06
2.89395e-05
-6.09846e-06
2.83266e-05
-7.51415e-06
2.75331e-05
-8.91178e-06
2.65972e-05
-1.0262e-05
2.55848e-05
-1.1549e-05
2.45772e-05
-1.278e-05
2.36286e-05
-1.39749e-05
2.273e-05
-1.51522e-05
2.18393e-05
-1.63243e-05
2.09186e-05
-1.74982e-05
1.99434e-05
-1.86781e-05
1.88979e-05
-1.98646e-05
1.77666e-05
-2.10537e-05
1.65363e-05
-2.22337e-05
1.52012e-05
-2.33861e-05
1.37651e-05
-2.44831e-05
1.22428e-05
1.07856e-05
3.28013e-06
2.70194e-05
2.61886e-06
2.90121e-05
1.75331e-06
3.00337e-05
7.53682e-07
3.05168e-05
-3.45174e-07
3.06547e-05
-1.52209e-06
3.05308e-05
-2.75923e-06
3.01767e-05
-4.037e-06
2.96044e-05
-5.33072e-06
2.88268e-05
-6.60935e-06
2.78758e-05
-7.84073e-06
2.68162e-05
-9.00336e-06
2.57398e-05
-1.00993e-05
2.47246e-05
-1.11487e-05
2.37793e-05
-1.21727e-05
2.28634e-05
-1.31871e-05
2.19329e-05
-1.42016e-05
2.0958e-05
-1.52226e-05
1.99189e-05
-1.62538e-05
1.87978e-05
-1.72946e-05
1.75771e-05
-1.83371e-05
1.62436e-05
-1.93643e-05
1.47924e-05
-2.03468e-05
1.32253e-05
1.16711e-05
4.56029e-06
2.71705e-05
3.98667e-06
2.95858e-05
3.21294e-06
3.08075e-05
2.31641e-06
3.14133e-05
1.3315e-06
3.16396e-05
2.76669e-07
3.15856e-05
-8.33423e-07
3.12868e-05
-1.98203e-06
3.0753e-05
-3.14714e-06
2.99919e-05
-4.29983e-06
2.90285e-05
-5.40655e-06
2.79229e-05
-6.44076e-06
2.6774e-05
-7.39847e-06
2.56823e-05
-8.29817e-06
2.4679e-05
-9.16337e-06
2.37286e-05
-1.00127e-05
2.27823e-05
-1.08588e-05
2.1804e-05
-1.17098e-05
2.077e-05
-1.25722e-05
1.96602e-05
-1.34491e-05
1.8454e-05
-1.43379e-05
1.71324e-05
-1.52258e-05
1.56803e-05
-1.60841e-05
1.40836e-05
1.2431e-05
5.86789e-06
2.7209e-05
5.35244e-06
3.01012e-05
4.65217e-06
3.15077e-05
3.84861e-06
3.22169e-05
2.97335e-06
3.25149e-05
2.04036e-06
3.25186e-05
1.06014e-06
3.2267e-05
4.57882e-08
3.17674e-05
-9.84454e-07
3.10221e-05
-2.00415e-06
3.00482e-05
-2.98011e-06
2.88989e-05
-3.88188e-06
2.76758e-05
-4.69884e-06
2.64993e-05
-5.44638e-06
2.54266e-05
-6.14938e-06
2.44316e-05
-6.82895e-06
2.34618e-05
-7.49991e-06
2.2475e-05
-8.17243e-06
2.14425e-05
-8.85461e-06
2.03423e-05
-9.55277e-06
1.91522e-05
-1.02698e-05
1.78495e-05
-1.10009e-05
1.64114e-05
-1.17215e-05
1.48042e-05
1.30553e-05
7.20295e-06
2.71758e-05
6.70229e-06
3.06019e-05
6.05146e-06
3.21586e-05
5.32841e-06
3.29399e-05
4.55775e-06
3.32856e-05
3.74638e-06
3.333e-05
2.89882e-06
3.31146e-05
2.02349e-06
3.26427e-05
1.13516e-06
3.19105e-05
2.56172e-07
3.09272e-05
-5.82438e-07
2.97375e-05
-1.34748e-06
2.84408e-05
-2.02168e-06
2.71735e-05
-2.61613e-06
2.6021e-05
-3.15587e-06
2.49713e-05
-3.66416e-06
2.39701e-05
-4.15779e-06
2.29686e-05
-4.64826e-06
2.1933e-05
-5.14416e-06
2.08382e-05
-5.65273e-06
1.96608e-05
-6.17991e-06
1.83767e-05
-6.73103e-06
1.69625e-05
-7.2989e-06
1.5372e-05
1.35305e-05
8.56696e-06
2.71492e-05
8.01577e-06
3.11531e-05
7.38446e-06
3.27899e-05
6.7282e-06
3.35962e-05
6.05762e-06
3.39561e-05
5.36869e-06
3.40189e-05
4.65787e-06
3.38254e-05
3.92787e-06
3.33727e-05
3.18884e-06
3.26495e-05
2.45902e-06
3.1657e-05
1.7659e-06
3.04306e-05
1.14268e-06
2.9064e-05
6.1269e-07
2.77034e-05
1.71678e-07
2.6462e-05
-2.05591e-07
2.53486e-05
-5.4453e-07
2.43091e-05
-8.63701e-07
2.32878e-05
-1.17581e-06
2.22451e-05
-1.48987e-06
2.11523e-05
-1.81242e-06
1.99833e-05
-2.14528e-06
1.87095e-05
-2.48263e-06
1.72998e-05
-2.83506e-06
1.57245e-05
1.39017e-05
9.95281e-06
2.73376e-05
9.25856e-06
3.18473e-05
8.61398e-06
3.34345e-05
8.01182e-06
3.41983e-05
7.43978e-06
3.45282e-05
6.87724e-06
3.45815e-05
6.30978e-06
3.43928e-05
5.7333e-06
3.39492e-05
5.15295e-06
3.32298e-05
4.58244e-06
3.22275e-05
4.04479e-06
3.09683e-05
3.57122e-06
2.95376e-05
3.18926e-06
2.80854e-05
2.90096e-06
2.67503e-05
2.68399e-06
2.55656e-05
2.51085e-06
2.44822e-05
2.35988e-06
2.34387e-05
2.21592e-06
2.2389e-05
2.06777e-06
2.13005e-05
1.90663e-06
2.01444e-05
1.72909e-06
1.88871e-05
1.54714e-06
1.74818e-05
1.38245e-06
1.58892e-05
1.42167e-05
1.12943e-05
2.84596e-05
1.03771e-05
3.27645e-05
9.68494e-06
3.41266e-05
9.12976e-06
3.47535e-05
8.66306e-06
3.49949e-05
8.23728e-06
3.50072e-05
7.82436e-06
3.48058e-05
7.4129e-06
3.43606e-05
7.00298e-06
3.36398e-05
6.60368e-06
3.26268e-05
6.23317e-06
3.13388e-05
5.91893e-06
2.98519e-05
5.69054e-06
2.83138e-05
5.55782e-06
2.68831e-05
5.5024e-06
2.5621e-05
5.49558e-06
2.4489e-05
5.51272e-06
2.34216e-05
5.53601e-06
2.23657e-05
5.55271e-06
2.12838e-05
5.55437e-06
2.01428e-05
5.53632e-06
1.89051e-05
5.49224e-06
1.75259e-05
5.4115e-06
1.59699e-05
1.42244e-05
1.30576e-05
3.19124e-05
1.1402e-05
3.44201e-05
1.0515e-05
3.50137e-05
1.0015e-05
3.52535e-05
9.67807e-06
3.53318e-05
9.41026e-06
3.5275e-05
9.16975e-06
3.50463e-05
8.93917e-06
3.45912e-05
8.71432e-06
3.38646e-05
8.50011e-06
3.2841e-05
8.31007e-06
3.15288e-05
8.16748e-06
2.99944e-05
8.10226e-06
2.8379e-05
8.13146e-06
2.68539e-05
8.24332e-06
2.55091e-05
8.41022e-06
2.43221e-05
8.60616e-06
2.32256e-05
8.81189e-06
2.216e-05
9.01379e-06
2.10819e-05
9.20166e-06
1.99549e-05
9.36685e-06
1.87399e-05
9.50178e-06
1.73909e-05
9.61095e-06
1.58607e-05
1.41031e-05
7.33142e-07
-7.33142e-07
1.73073e-06
-9.97588e-07
2.83668e-06
-1.10594e-06
4.08003e-06
-1.24335e-06
5.44266e-06
-1.36263e-06
-9.04317e-07
6.34697e-06
8.46216e-07
-1.57936e-06
1.66831e-06
-1.81968e-06
2.53722e-06
-1.97486e-06
3.53057e-06
-2.2367e-06
4.44075e-06
-2.2728e-06
-1.20448e-06
4.74091e-06
8.32206e-07
-2.41156e-06
1.48941e-06
-2.47688e-06
2.12728e-06
-2.61273e-06
2.72415e-06
-2.83357e-06
3.07027e-06
-2.61893e-06
-9.62155e-07
2.82795e-06
7.62036e-07
-3.1736e-06
1.27498e-06
-2.98983e-06
1.69343e-06
-3.03118e-06
1.95228e-06
-3.09242e-06
1.86345e-06
-2.53009e-06
-3.44371e-07
1.24567e-06
6.59563e-07
-3.83316e-06
1.04229e-06
-3.37256e-06
1.26896e-06
-3.25784e-06
1.25884e-06
-3.0823e-06
8.81694e-07
-2.15295e-06
3.77777e-07
1.59545e-07
5.42558e-07
-4.37572e-06
8.06398e-07
-3.6364e-06
8.72575e-07
-3.32402e-06
6.65242e-07
-2.87497e-06
9.59515e-08
-1.58366e-06
1.12748e-06
-6.53753e-07
4.22314e-07
-4.79803e-06
5.79471e-07
-3.79355e-06
5.17985e-07
-3.26254e-06
1.84588e-07
-2.54157e-06
-4.11118e-07
-9.87955e-07
1.82386e-06
-1.1075e-06
3.05959e-07
-5.10399e-06
3.69283e-07
-3.85688e-06
2.12918e-07
-3.10617e-06
-1.91786e-07
-2.13687e-06
-7.84758e-07
-3.94983e-07
2.39618e-06
-1.35707e-06
1.96693e-07
-5.30069e-06
1.80397e-07
-3.84058e-06
-4.07887e-08
-2.88498e-06
-4.71807e-07
-1.70585e-06
-1.02006e-06
1.53273e-07
2.83745e-06
-1.46133e-06
9.58454e-08
-5.39653e-06
1.46472e-08
-3.75938e-06
-2.44897e-07
-2.62544e-06
-6.69373e-07
-1.28137e-06
-1.14671e-06
6.30611e-07
3.15231e-06
-1.46157e-06
9.93686e-10
-5.39753e-06
-1.2815e-07
-3.63024e-06
-4.04969e-07
-2.34862e-06
-7.9968e-07
-8.86663e-07
-1.19317e-06
1.0241e-06
3.35021e-06
-1.39106e-06
-7.88031e-08
-5.31872e-06
-2.4954e-07
-3.4595e-06
-5.27244e-07
-2.07092e-06
-8.77613e-07
-5.36294e-07
-1.18302e-06
1.3295e-06
3.44187e-06
-1.27468e-06
-1.53567e-07
-5.16516e-06
-3.52299e-07
-3.26077e-06
-6.1882e-07
-1.8044e-06
-9.16801e-07
-2.38312e-07
-1.13552e-06
1.54823e-06
3.43813e-06
-1.13178e-06
-2.21516e-07
-4.94364e-06
-4.39611e-07
-3.04268e-06
-6.86861e-07
-1.55715e-06
-9.29187e-07
4.01476e-09
-1.06601e-06
1.68504e-06
3.34931e-06
-9.77191e-07
-2.83917e-07
-4.65972e-06
-5.14932e-07
-2.81166e-06
-7.38168e-07
-1.33391e-06
-9.24914e-07
1.9076e-07
-9.86437e-07
1.74657e-06
3.18508e-06
-8.22211e-07
-3.42094e-07
-4.31763e-06
-5.81715e-07
-2.57204e-06
-7.78941e-07
-1.13669e-06
-9.12394e-07
3.24213e-07
-9.06011e-07
1.74019e-06
2.95457e-06
-6.755e-07
-3.97207e-07
-3.92042e-06
-6.43193e-07
-2.32606e-06
-8.14679e-07
-9.65199e-07
-8.98501e-07
4.08035e-07
-8.31716e-07
1.6734e-06
2.66655e-06
-5.43698e-07
-4.50059e-07
-3.47036e-06
-7.0222e-07
-2.07389e-06
-8.50201e-07
-8.17218e-07
-8.88842e-07
4.46676e-07
-7.6881e-07
1.55337e-06
2.33014e-06
-4.32393e-07
-5.0085e-07
-2.96951e-06
-7.612e-07
-1.81354e-06
-8.8978e-07
-6.88638e-07
-8.8814e-07
4.45036e-07
-7.21281e-07
1.38651e-06
1.95552e-06
-3.46667e-07
-5.48752e-07
-2.42076e-06
-8.22115e-07
-1.54018e-06
-9.37453e-07
-5.733e-07
-9.0071e-07
4.08292e-07
-6.92152e-07
1.17795e-06
1.55457e-06
-2.91204e-07
-5.91274e-07
-1.82949e-06
-8.86738e-07
-1.24472e-06
-9.97573e-07
-4.62465e-07
-9.30972e-07
3.41691e-07
-6.83604e-07
9.30584e-07
1.14099e-06
-2.70024e-07
-6.23508e-07
-1.20598e-06
-9.57151e-07
-9.11074e-07
-1.07575e-06
-3.43864e-07
-9.83853e-07
2.49792e-07
-6.97026e-07
6.43756e-07
7.30045e-07
-2.86076e-07
-6.35505e-07
-5.70474e-07
-1.03474e-06
-5.11841e-07
-1.17849e-06
-2.00107e-07
-1.06292e-06
1.34214e-07
-7.36886e-07
3.17726e-07
3.39755e-07
-3.46595e-07
-5.70474e-07
-1.08232e-06
-1.28242e-06
-1.14821e-06
-8.30482e-07
-4.90727e-07
1.2501e-05
2.57584e-05
1.16475e-05
3.52735e-05
1.0896e-05
3.57652e-05
1.05754e-05
3.55741e-05
1.04298e-05
3.54774e-05
1.0357e-05
3.53478e-05
1.0315e-05
3.50882e-05
1.0286e-05
3.46202e-05
1.02638e-05
3.38868e-05
1.02501e-05
3.28547e-05
1.0255e-05
3.1524e-05
1.02975e-05
2.99519e-05
1.04065e-05
2.82699e-05
1.06054e-05
2.6655e-05
1.08905e-05
2.5224e-05
1.12375e-05
2.39751e-05
1.16201e-05
2.28431e-05
1.2018e-05
2.17622e-05
1.24164e-05
2.06834e-05
1.28031e-05
1.95682e-05
1.31659e-05
1.83771e-05
1.34931e-05
1.70638e-05
1.37811e-05
1.55728e-05
1.38397e-05
9.3957e-06
2.11036e-05
1.05319e-05
3.41373e-05
1.06431e-05
3.5654e-05
1.07311e-05
3.54861e-05
1.08712e-05
3.53373e-05
1.10447e-05
3.51743e-05
1.12347e-05
3.48982e-05
1.14319e-05
3.44231e-05
1.16321e-05
3.36866e-05
1.1835e-05
3.26518e-05
1.20493e-05
3.13097e-05
1.22903e-05
2.97109e-05
1.25849e-05
2.79753e-05
1.29609e-05
2.6279e-05
1.34232e-05
2.47617e-05
1.39527e-05
2.34457e-05
1.45236e-05
2.22722e-05
1.51147e-05
2.1171e-05
1.57101e-05
2.0088e-05
1.62957e-05
1.89826e-05
1.68564e-05
1.78164e-05
1.73757e-05
1.65445e-05
1.78416e-05
1.51069e-05
1.3422e-05
6.53201e-06
1.73996e-05
8.83418e-06
3.18351e-05
9.86249e-06
3.46257e-05
1.04821e-05
3.48665e-05
1.0988e-05
3.48314e-05
1.14586e-05
3.47037e-05
1.19148e-05
3.4442e-05
1.23635e-05
3.39744e-05
1.2807e-05
3.3243e-05
1.32412e-05
3.22176e-05
1.36788e-05
3.08721e-05
1.41309e-05
2.92588e-05
1.46216e-05
2.74846e-05
1.5181e-05
2.57196e-05
1.58223e-05
2.41204e-05
1.65325e-05
2.27354e-05
1.7288e-05
2.15167e-05
1.80672e-05
2.03918e-05
1.88534e-05
1.93018e-05
1.96321e-05
1.8204e-05
2.03868e-05
1.70617e-05
2.10984e-05
1.58328e-05
2.1749e-05
1.44563e-05
1.28381e-05
3.93153e-06
1.47137e-05
6.93916e-06
2.88275e-05
8.72033e-06
3.28446e-05
9.88687e-06
3.37e-05
1.08017e-05
3.39166e-05
1.16064e-05
3.3899e-05
1.2357e-05
3.36915e-05
1.30782e-05
3.32531e-05
1.3783e-05
3.25383e-05
1.44641e-05
3.15365e-05
1.51365e-05
3.01997e-05
1.581e-05
2.85853e-05
1.65056e-05
2.67891e-05
1.72537e-05
2.49715e-05
1.80739e-05
2.33002e-05
1.89604e-05
2.18489e-05
1.98927e-05
2.05844e-05
2.08503e-05
1.94342e-05
2.18166e-05
1.83355e-05
2.27774e-05
1.72432e-05
2.37169e-05
1.61222e-05
2.46153e-05
1.49345e-05
2.54504e-05
1.36212e-05
1.20819e-05
1.93121e-06
1.2942e-05
5.09391e-06
2.56648e-05
7.39892e-06
3.05396e-05
9.04996e-06
3.20489e-05
1.03704e-05
3.25961e-05
1.15229e-05
3.27465e-05
1.25845e-05
3.26299e-05
1.35913e-05
3.22463e-05
1.45609e-05
3.15687e-05
1.55027e-05
3.05947e-05
1.64206e-05
2.92818e-05
1.73238e-05
2.76821e-05
1.8231e-05
2.58819e-05
1.91718e-05
2.40307e-05
2.01702e-05
2.23018e-05
2.12273e-05
2.07918e-05
2.23272e-05
1.94845e-05
2.34514e-05
1.83101e-05
2.45844e-05
1.72025e-05
2.57133e-05
1.61142e-05
2.68242e-05
1.50112e-05
2.78984e-05
1.38603e-05
2.8912e-05
1.26076e-05
1.11539e-05
5.85246e-07
1.1703e-05
3.50544e-06
2.27446e-05
6.07913e-06
2.79659e-05
8.10125e-06
3.00268e-05
9.78023e-06
3.09172e-05
1.1264e-05
3.12627e-05
1.26325e-05
3.12613e-05
1.39272e-05
3.09516e-05
1.51666e-05
3.03293e-05
1.63715e-05
2.93897e-05
1.75381e-05
2.81152e-05
1.86746e-05
2.65456e-05
1.97974e-05
2.47591e-05
2.09335e-05
2.28946e-05
2.21089e-05
2.11264e-05
2.33308e-05
1.95699e-05
2.45888e-05
1.82266e-05
2.58672e-05
1.70316e-05
2.7153e-05
1.59168e-05
2.84349e-05
1.48323e-05
2.97013e-05
1.37448e-05
3.09362e-05
1.26254e-05
3.21157e-05
1.14281e-05
1.00616e-05
-2.54528e-07
1.08501e-05
2.2826e-06
2.02075e-05
4.89968e-06
2.53488e-05
7.15889e-06
2.77676e-05
9.12496e-06
2.89511e-05
1.08994e-05
2.94883e-05
1.25522e-05
2.96085e-05
1.41219e-05
2.93819e-05
1.5629e-05
2.88222e-05
1.70892e-05
2.79295e-05
1.85011e-05
2.67033e-05
1.98703e-05
2.51764e-05
2.12094e-05
2.342e-05
2.25413e-05
2.15627e-05
2.3892e-05
1.97758e-05
2.52733e-05
1.81886e-05
2.66804e-05
1.68194e-05
2.81019e-05
1.56101e-05
2.95271e-05
1.44915e-05
3.09473e-05
1.34121e-05
3.23533e-05
1.23388e-05
3.37322e-05
1.12465e-05
3.50619e-05
1.00984e-05
8.81639e-06
-7.29547e-07
1.02225e-05
1.43763e-06
1.80403e-05
3.94817e-06
2.28382e-05
6.31418e-06
2.54016e-05
8.48472e-06
2.67805e-05
1.04974e-05
2.74756e-05
1.23986e-05
2.77073e-05
1.42196e-05
2.75609e-05
1.59772e-05
2.70646e-05
1.76803e-05
2.62264e-05
1.93288e-05
2.50548e-05
2.0925e-05
2.35803e-05
2.24768e-05
2.18681e-05
2.40024e-05
2.00371e-05
2.55254e-05
1.82528e-05
2.70607e-05
1.66532e-05
2.8609e-05
1.52712e-05
3.01633e-05
1.40558e-05
3.17164e-05
1.29384e-05
3.32618e-05
1.18667e-05
3.47929e-05
1.08078e-05
3.62995e-05
9.73989e-06
3.77629e-05
8.63502e-06
7.43193e-06
-9.32607e-07
9.69381e-06
9.19745e-07
1.61879e-05
3.25821e-06
2.04998e-05
5.63093e-06
2.30289e-05
7.92139e-06
2.44901e-05
1.01139e-05
2.52831e-05
1.22219e-05
2.55993e-05
1.42622e-05
2.55207e-05
1.62449e-05
2.50819e-05
1.8173e-05
2.42982e-05
2.00442e-05
2.31836e-05
2.18568e-05
2.17678e-05
2.36138e-05
2.0111e-05
2.53278e-05
1.83232e-05
2.70183e-05
1.65622e-05
2.87018e-05
1.49698e-05
3.03835e-05
1.35895e-05
3.20617e-05
1.23777e-05
3.37323e-05
1.12677e-05
3.53916e-05
1.02074e-05
3.70352e-05
9.16421e-06
3.86558e-05
8.11926e-06
4.0238e-05
7.05288e-06
5.92184e-06
-9.6216e-07
9.19439e-06
6.55364e-07
1.45704e-05
2.81544e-06
1.83397e-05
5.13781e-06
2.07065e-05
7.47936e-06
2.21485e-05
9.79234e-06
2.29701e-05
1.20626e-05
2.33291e-05
1.42874e-05
2.32959e-05
1.64667e-05
2.29027e-05
1.85972e-05
2.21677e-05
2.06725e-05
2.11082e-05
2.26867e-05
1.97536e-05
2.46375e-05
1.81602e-05
2.65311e-05
1.64296e-05
2.83822e-05
1.47112e-05
3.02068e-05
1.31452e-05
3.20143e-05
1.1782e-05
3.38075e-05
1.05844e-05
3.55865e-05
9.48883e-06
3.73498e-05
8.44405e-06
3.90953e-05
7.41869e-06
4.08182e-05
6.3964e-06
4.25061e-05
5.365e-06
4.2988e-06
-8.80101e-07
8.68343e-06
5.76367e-07
1.3114e-05
2.58255e-06
1.63335e-05
4.83257e-06
1.84565e-05
7.18151e-06
1.97996e-05
9.56509e-06
2.05865e-05
1.19531e-05
2.09411e-05
1.43267e-05
2.09223e-05
1.66729e-05
2.05564e-05
1.89809e-05
1.98597e-05
2.12392e-05
1.88499e-05
2.34369e-05
1.75559e-05
2.55664e-05
1.60307e-05
2.76274e-05
1.43686e-05
2.96292e-05
1.27094e-05
3.15862e-05
1.11881e-05
3.35109e-05
9.85725e-06
3.54108e-05
8.68455e-06
3.72893e-05
7.61029e-06
3.91479e-05
6.58549e-06
4.0986e-05
5.58056e-06
4.28007e-05
4.58169e-06
4.45828e-05
3.58295e-06
2.57421e-06
-7.27357e-07
8.13611e-06
6.2777e-07
1.17588e-05
2.51558e-06
1.44457e-05
4.69505e-06
1.6277e-05
7.03078e-06
1.74639e-05
9.45231e-06
1.8165e-05
1.19202e-05
1.84732e-05
1.44072e-05
1.84353e-05
1.68902e-05
1.80734e-05
1.93495e-05
1.74004e-05
2.17675e-05
1.6432e-05
2.4128e-05
1.51954e-05
2.64181e-05
1.37406e-05
2.86312e-05
1.21555e-05
3.07709e-05
1.05697e-05
3.28498e-05
9.10924e-06
3.48825e-05
7.82453e-06
3.68803e-05
6.68673e-06
3.88502e-05
5.64043e-06
4.07956e-05
4.64006e-06
4.27177e-05
3.65853e-06
4.46148e-05
2.68452e-06
4.64808e-05
1.71698e-06
7.58768e-07
-5.32681e-07
7.53701e-06
7.6836e-07
1.04578e-05
2.57499e-06
1.26391e-05
4.69853e-06
1.41535e-05
7.01774e-06
1.51446e-05
9.46131e-06
1.57214e-05
1.19847e-05
1.59498e-05
1.45554e-05
1.58646e-05
1.71455e-05
1.54833e-05
1.9729e-05
1.4817e-05
2.22816e-05
1.38793e-05
2.47817e-05
1.26952e-05
2.72112e-05
1.13112e-05
2.95578e-05
9.80885e-06
3.18201e-05
8.30742e-06
3.40082e-05
6.92107e-06
3.61384e-05
5.69436e-06
3.82249e-05
4.60022e-06
4.02774e-05
3.58792e-06
4.23013e-05
2.61621e-06
4.42987e-05
1.66111e-06
4.62696e-05
7.13603e-07
4.82102e-05
-2.23562e-07
-1.1375e-06
-3.16095e-07
6.87591e-06
9.68502e-07
9.17319e-06
2.72951e-06
1.08781e-05
4.81758e-06
1.20654e-05
7.12718e-06
1.28351e-05
9.58899e-06
1.32596e-05
1.2156e-05
1.33828e-05
1.47918e-05
1.32287e-05
1.74652e-05
1.28099e-05
2.01465e-05
1.21357e-05
2.28074e-05
1.12184e-05
2.54218e-05
1.00808e-05
2.79667e-05
8.76627e-06
3.04252e-05
7.35035e-06
3.27915e-05
5.94119e-06
3.50737e-05
4.63887e-06
3.72888e-05
3.47928e-06
3.94532e-05
2.43573e-06
4.15787e-05
1.46245e-06
4.36719e-05
5.23038e-07
4.57361e-05
-4.03108e-07
4.77723e-05
-1.32263e-06
4.97787e-05
-2.2299e-06
-3.10508e-06
-9.08942e-08
6.1446e-06
1.20765e-06
7.87464e-06
2.956e-06
9.12971e-06
5.0316e-06
9.98983e-06
7.34313e-06
1.05235e-05
9.82588e-06
1.07768e-05
1.24321e-05
1.07767e-05
1.5123e-05
1.05378e-05
1.78641e-05
1.00688e-05
2.0623e-05
9.37687e-06
2.33684e-05
8.47291e-06
2.60714e-05
7.37789e-06
2.87057e-05