/*--------------------------------*- C++ -*----------------------------------*\
  =========                 |
  \\      /  F ield         | OpenFOAM: The Open Source CFD Toolbox
   \\    /   O peration     | Website:  https://openfoam.org
    \\  /    A nd           | Version:  11
     \\/     M anipulation  |
\*---------------------------------------------------------------------------*/
FoamFile
{
    format      ascii;
    class       surfaceScalarField;
    location    "0.28";
    object      meshPhi;
}
// * * * * * * * * * * * * * * * * * * * * * * * * * * * * * * * * * * * * * //

dimensions      [0 3 -1 0 0 0 0];

internalField   nonuniform List<scalar> 
5640
(
1.36991e-16
9.81747e-07
2.42113e-16
1.37445e-06
3.77069e-16
1.76715e-06
-1.33921e-15
2.15984e-06
-3.68139e-15
2.55254e-06
2.94524e-06
5.95141e-15
1.85536e-18
9.81747e-07
-3.88773e-16
1.37445e-06
-2.60401e-15
1.76715e-06
1.94374e-15
2.15984e-06
8.06628e-15
2.55254e-06
2.94524e-06
-9.02966e-15
-1.16438e-16
9.81747e-07
1.86414e-16
1.37445e-06
-1.56227e-15
1.76715e-06
-4.21249e-15
2.15984e-06
-7.49831e-15
2.55254e-06
2.94524e-06
7.72388e-16
8.69727e-17
9.81747e-07
-1.01877e-16
1.37445e-06
2.6932e-15
1.76715e-06
7.44288e-15
2.15984e-06
3.25994e-15
2.55254e-06
2.94524e-06
-2.7978e-15
-4.83542e-17
9.81747e-07
3.95521e-17
1.37445e-06
1.94318e-16
1.76715e-06
-1.80598e-15
2.15984e-06
-4.20836e-15
2.55254e-06
2.94524e-06
5.01347e-15
-1.80074e-16
9.81747e-07
4.32544e-18
1.37445e-06
-1.84775e-15
1.76715e-06
-3.88607e-15
2.15984e-06
3.15732e-15
2.55254e-06
2.94524e-06
4.98213e-16
2.53989e-16
9.81747e-07
2.55432e-16
1.37445e-06
2.06602e-15
1.76715e-06
4.5042e-15
2.15984e-06
-2.30984e-15
2.55254e-06
2.94524e-06
5.41018e-16
2.16763e-17
9.81747e-07
-3.21595e-16
1.37445e-06
-1.14878e-15
1.76715e-06
-5.2855e-15
2.15984e-06
-3.76617e-16
2.55254e-06
2.94524e-06
-5.63964e-15
-1.43381e-16
9.81747e-07
1.66441e-16
1.37445e-06
4.19125e-15
1.76715e-06
6.3495e-15
2.15984e-06
-8.05511e-16
2.55254e-06
2.94524e-06
8.39376e-16
-6.8772e-17
9.81747e-07
-9.20095e-17
1.37445e-06
-2.76933e-15
1.76715e-06
-3.68663e-16
2.15984e-06
-1.45072e-15
2.55254e-06
2.94524e-06
-1.76513e-16
1.66365e-16
9.81747e-07
-8.86418e-17
1.37445e-06
5.69747e-16
1.76715e-06
-2.10345e-15
2.15984e-06
9.6601e-15
2.55254e-06
2.94524e-06
5.29046e-15
-1.77752e-16
9.81747e-07
-2.04506e-17
1.37445e-06
-3.45353e-16
1.76715e-06
-4.17261e-15
2.15984e-06
-2.62229e-15
2.55254e-06
2.94524e-06
5.36967e-15
1.77819e-16
9.81747e-07
2.05314e-17
1.37445e-06
3.45545e-16
1.76715e-06
4.17277e-15
2.15984e-06
2.62234e-15
2.55254e-06
2.94524e-06
-5.36954e-15
-1.66316e-16
9.81747e-07
8.87153e-17
1.37445e-06
-5.69538e-16
1.76715e-06
2.10355e-15
2.15984e-06
-9.65997e-15
2.55254e-06
2.94524e-06
-5.29004e-15
6.88197e-17
9.81747e-07
9.20671e-17
1.37445e-06
2.76943e-15
1.76715e-06
3.68881e-16
2.15984e-06
1.45093e-15
2.55254e-06
2.94524e-06
1.76771e-16
1.43412e-16
9.81747e-07
-1.66351e-16
1.37445e-06
-4.19106e-15
1.76715e-06
-6.34938e-15
2.15984e-06
8.05863e-16
2.55254e-06
2.94524e-06
-8.39253e-16
-2.16521e-17
9.81747e-07
3.21745e-16
1.37445e-06
1.14902e-15
1.76715e-06
5.2857e-15
2.15984e-06
3.77005e-16
2.55254e-06
2.94524e-06
5.63981e-15
-2.53931e-16
9.81747e-07
-2.55392e-16
1.37445e-06
-2.06587e-15
1.76715e-06
-4.50402e-15
2.15984e-06
2.31034e-15
2.55254e-06
2.94524e-06
-5.40758e-16
1.80118e-16
9.81747e-07
-4.31178e-18
1.37445e-06
1.84785e-15
1.76715e-06
3.88624e-15
2.15984e-06
-3.15691e-15
2.55254e-06
2.94524e-06
-4.98155e-16
4.84017e-17
9.81747e-07
-3.94983e-17
1.37445e-06
-1.94192e-16
1.76715e-06
1.80618e-15
2.15984e-06
4.20857e-15
2.55254e-06
2.94524e-06
-5.0132e-15
-8.69686e-17
9.81747e-07
1.01997e-16
1.37445e-06
-2.69311e-15
1.76715e-06
-7.44263e-15
2.15984e-06
-3.25969e-15
2.55254e-06
2.94524e-06
2.79834e-15
1.16477e-16
9.81747e-07
-1.86323e-16
1.37445e-06
1.56246e-15
1.76715e-06
4.21264e-15
2.15984e-06
7.49874e-15
2.55254e-06
2.94524e-06
-7.72094e-16
-1.79955e-18
9.81747e-07
3.88812e-16
1.37445e-06
2.60418e-15
1.76715e-06
-1.94363e-15
2.15984e-06
-8.06614e-15
2.55254e-06
2.94524e-06
9.0299e-15
-1.36936e-16
-2.42081e-16
-3.76921e-16
1.33935e-15
3.68172e-15
-5.95119e-15
-1.13355e-14
4.53785e-06
-4.53785e-06
-4.80824e-16
5.23599e-06
-5.23599e-06
-5.35698e-15
5.93412e-06
-5.93412e-06
-1.13032e-14
6.63225e-06
-6.63225e-06
4.86922e-15
7.33038e-06
-7.33038e-06
-1.10876e-15
8.02851e-06
-8.02851e-06
-8.15851e-15
8.72664e-06
-8.72664e-06
1.30452e-14
9.42478e-06
-9.42478e-06
5.9501e-15
1.01229e-05
-1.01229e-05
-1.99537e-15
1.0821e-05
-1.0821e-05
2.43881e-14
1.15192e-05
-1.15192e-05
1.61913e-14
1.22173e-05
-1.22173e-05
-3.27857e-14
1.29154e-05
-1.29154e-05
-3.04972e-15
1.36136e-05
-1.36136e-05
-1.44405e-14
1.43117e-05
-1.43117e-05
-2.68982e-14
1.50098e-05
-1.50098e-05
7.74123e-15
1.5708e-05
-1.5708e-05
-4.43504e-15
1.64061e-05
-1.64061e-05
-1.79974e-14
1.71042e-05
-1.71042e-05
2.1825e-14
1.78024e-05
-1.78024e-05
8.21649e-15
1.85005e-05
-1.85005e-05
-6.0803e-15
1.91986e-05
-1.91986e-05
3.89245e-14
1.98967e-05
-1.98967e-05
2.05949e-05
-2.05949e-05
9.3994e-15
4.53785e-06
5.20396e-16
5.23599e-06
7.52854e-15
5.93412e-06
-4.41142e-15
6.63225e-06
3.78454e-15
7.33038e-06
1.33856e-14
8.02851e-06
-2.10915e-15
8.72664e-06
8.53052e-15
9.42478e-06
-1.00261e-14
1.01229e-05
1.86675e-15
1.0821e-05
-2.02017e-14
1.15192e-05
-7.01095e-15
1.22173e-05
7.51296e-15
1.29154e-05
2.36117e-14
1.36136e-05
-2.03855e-15
1.43117e-05
1.4836e-14
1.50098e-05
-1.38785e-14
1.5708e-05
2.39408e-15
1.64061e-05
2.04123e-14
1.71042e-05
-7.01236e-15
1.78024e-05
1.20711e-14
1.85005e-05
-2.59392e-14
1.91986e-05
1.8545e-15
1.98967e-05
2.05949e-05
-8.67588e-15
4.53785e-06
1.22925e-14
5.23599e-06
1.88389e-15
5.93412e-06
8.90328e-15
6.63225e-06
-5.10732e-15
7.33038e-06
-2.19898e-14
8.02851e-06
1.22649e-14
8.72664e-06
-5.37325e-15
9.42478e-06
4.45819e-15
1.01229e-05
-1.43052e-14
1.0821e-05
-7.32601e-15
1.15192e-05
7.04345e-15
1.22173e-05
2.39967e-14
1.29154e-05
-7.55362e-15
1.36136e-05
9.80418e-15
1.43117e-05
-1.62358e-14
1.50098e-05
4.02951e-14
1.5708e-05
1.44494e-14
1.64061e-05
-1.37047e-14
1.71042e-05
-7.89497e-15
1.78024e-05
-3.92456e-14
1.85005e-05
4.27515e-14
1.91986e-05
-8.84643e-15
1.98967e-05
2.05949e-05
5.98611e-15
4.53785e-06
2.19294e-16
5.23599e-06
-6.4351e-15
5.93412e-06
6.06422e-15
6.63225e-06
-2.0923e-15
7.33038e-06
1.61768e-14
8.02851e-06
-1.88295e-14
8.72664e-06
-2.351e-15
9.42478e-06
9.17324e-15
1.01229e-05
-4.71088e-15
1.0821e-05
2.16278e-14
1.15192e-05
-2.96436e-14
1.22173e-05
-9.28849e-15
1.29154e-05
-1.89035e-14
1.36136e-05
4.46963e-15
1.43117e-05
3.01594e-14
1.50098e-05
-2.62191e-14
1.5708e-05
4.38979e-16
1.64061e-05
-2.1169e-14
1.71042e-05
1.87154e-14
1.78024e-05
-3.91781e-15
1.85005e-05
-2.91547e-14
1.91986e-05
1.52348e-14
1.98967e-05
2.05949e-05
6.71545e-15
4.53785e-06
-7.30651e-15
5.23599e-06
1.11012e-14
5.93412e-06
-4.24094e-15
6.63225e-06
1.51028e-14
7.33038e-06
-5.20946e-15
8.02851e-06
1.70147e-14
8.72664e-06
-3.93962e-15
9.42478e-06
-2.92922e-16
1.01229e-05
6.61106e-15
1.0821e-05
1.37064e-14
1.15192e-05
1.01858e-14
1.22173e-05
1.82204e-14
1.29154e-05
1.43683e-14
1.36136e-05
2.33435e-14
1.43117e-05
-2.5342e-14
1.50098e-05
2.90736e-14
1.5708e-05
-7.82632e-15
1.64061e-05
3.54191e-14
1.71042e-05
-4.51042e-15
1.78024e-05
4.2377e-14
1.85005e-05
-5.79307e-16
1.91986e-05
-8.73101e-15
1.98967e-05
2.05949e-05
-4.63012e-15
4.53785e-06
5.79773e-15
5.23599e-06
-1.61503e-14
5.93412e-06
-5.97439e-15
6.63225e-06
-8.55474e-15
7.33038e-06
4.22433e-15
8.02851e-06
-8.18607e-15
8.72664e-06
7.00078e-15
9.42478e-06
-2.42286e-14
1.01229e-05
-7.76745e-15
1.0821e-05
-2.2764e-14
1.15192e-05
8.35004e-15
1.22173e-05
-7.40382e-15
1.29154e-05
2.82665e-14
1.36136e-05
-4.57061e-14
1.43117e-05
-8.22166e-15
1.50098e-05
-2.82212e-14
1.5708e-05
-2.33836e-15
1.64061e-05
-6.9438e-15
1.71042e-05
2.21531e-14
1.78024e-05
-3.41029e-14
1.85005e-05
-3.73642e-15
1.91986e-05
-3.23417e-14
1.98967e-05
2.05949e-05
-8.92498e-15
4.53785e-06
-2.2886e-15
5.23599e-06
-2.22384e-15
5.93412e-06
6.61698e-15
6.63225e-06
-3.38753e-15
7.33038e-06
-3.90654e-15
8.02851e-06
-6.41778e-15
8.72664e-06
-7.15783e-15
9.42478e-06
6.81104e-15
1.01229e-05
6.98324e-15
1.0821e-05
-9.06247e-15
1.15192e-05
6.75891e-15
1.22173e-05
-2.88866e-14
1.29154e-05
-1.22314e-14
1.36136e-05
4.80663e-15
1.43117e-05
2.50275e-14
1.50098e-05
3.86545e-15
1.5708e-05
3.60973e-15
1.64061e-05
-2.04812e-14
1.71042e-05
-2.17566e-14
1.78024e-05
3.47054e-15
1.85005e-05
2.90435e-14
1.91986e-05
-1.66138e-15
1.98967e-05
2.05949e-05
6.21584e-15
4.53785e-06
-3.8789e-15
5.23599e-06
1.54222e-14
5.93412e-06
-7.06459e-15
6.63225e-06
-2.21009e-15
7.33038e-06
1.43005e-15
8.02851e-06
-5.49251e-15
8.72664e-06
1.32269e-14
9.42478e-06
6.04539e-15
1.01229e-05
-1.74498e-14
1.0821e-05
2.08895e-14
1.15192e-05
-2.14447e-14
1.22173e-05
1.91353e-14
1.29154e-05
-7.31448e-15
1.36136e-05
3.84885e-14
1.43117e-05
-1.29217e-14
1.50098e-05
-1.88029e-15
1.5708e-05
5.7202e-15
1.64061e-05
-7.58361e-15
1.71042e-05
2.76608e-14
1.78024e-05
1.41021e-14
1.85005e-05
-5.31398e-14
1.91986e-05
3.90909e-14
1.98967e-05
2.05949e-05
-1.49856e-15
4.53785e-06
1.08975e-14
5.23599e-06
-6.59916e-15
5.93412e-06
7.26601e-15
6.63225e-06
6.17549e-15
7.33038e-06
2.48898e-15
8.02851e-06
-9.64547e-16
8.72664e-06
-4.36408e-15
9.42478e-06
-8.89921e-15
1.01229e-05
1.38618e-14
1.0821e-05
1.06926e-14
1.15192e-05
6.25194e-15
1.22173e-05
-1.25413e-16
1.29154e-05
-3.43875e-15
1.36136e-05
-1.10418e-14
1.43117e-05
-1.77622e-14
1.50098e-05
1.76826e-14
1.5708e-05
9.95592e-15
1.64061e-05
3.33258e-15
1.71042e-05
-3.29644e-14
1.78024e-05
-1.0419e-14
1.85005e-05
3.007e-14
1.91986e-05
-5.99893e-14
1.98967e-05
2.05949e-05
5.17028e-15
4.53785e-06
-7.45536e-15
5.23599e-06
-7.56697e-16
5.93412e-06
6.83975e-15
6.63225e-06
-9.97347e-15
7.33038e-06
-1.66461e-15
8.02851e-06
9.21956e-15
8.72664e-06
-1.34579e-14
9.42478e-06
2.32226e-14
1.01229e-05
1.04725e-14
1.0821e-05
-1.72712e-14
1.15192e-05
-3.02679e-15
1.22173e-05
1.13991e-14
1.29154e-05
-1.98157e-14
1.36136e-05
-4.67624e-15
1.43117e-05
5.03086e-14
1.50098e-05
-2.40445e-14
1.5708e-05
-6.65845e-15
1.64061e-05
1.42623e-14
1.71042e-05
1.65242e-15
1.78024e-05
-6.80974e-15
1.85005e-05
1.44445e-14
1.91986e-05
5.07599e-14
1.98967e-05
2.05949e-05
-6.19716e-15
4.53785e-06
2.89198e-17
5.23599e-06
1.15118e-14
5.93412e-06
-2.06261e-14
6.63225e-06
5.36737e-15
7.33038e-06
1.2227e-15
8.02851e-06
-4.61792e-17
8.72664e-06
1.23951e-14
9.42478e-06
-1.32251e-14
1.01229e-05
-1.88938e-14
1.0821e-05
-4.9636e-15
1.15192e-05
-7.15285e-15
1.22173e-05
-1.48853e-14
1.29154e-05
3.53406e-14
1.36136e-05
1.04456e-18
1.43117e-05
-4.31355e-14
1.50098e-05
1.35637e-14
1.5708e-05
-2.82542e-14
1.64061e-05
2.45864e-15
1.71042e-05
-1.02395e-14
1.78024e-05
2.38039e-14
1.85005e-05
1.38813e-14
1.91986e-05
-4.556e-14
1.98967e-05
2.05949e-05
-1.90635e-15
4.53785e-06
1.13098e-15
5.23599e-06
-2.16615e-14
5.93412e-06
9.62451e-15
6.63225e-06
1.51377e-14
7.33038e-06
-1.4064e-14
8.02851e-06
8.09333e-15
8.72664e-06
-2.69585e-14
9.42478e-06
-1.96406e-15
1.01229e-05
2.97173e-14
1.0821e-05
-1.17447e-14
1.15192e-05
1.98683e-14
1.22173e-05
-2.74442e-14
1.29154e-05
-2.06142e-14
1.36136e-05
1.60419e-14
1.43117e-05
-4.61257e-15
1.50098e-05
4.69339e-15
1.5708e-05
4.79677e-14
1.64061e-05
-1.37352e-14
1.71042e-05
3.23733e-14
1.78024e-05
-3.51849e-14
1.85005e-05
-2.48985e-14
1.91986e-05
7.1918e-14
1.98967e-05
2.05949e-05
1.90677e-15
4.53785e-06
-1.13038e-15
5.23599e-06
2.16621e-14
5.93412e-06
-9.62381e-15
6.63225e-06
-1.51364e-14
7.33038e-06
1.40651e-14
8.02851e-06
-8.093e-15
8.72664e-06
2.69613e-14
9.42478e-06
1.96702e-15
1.01229e-05
-2.9716e-14
1.0821e-05
1.17462e-14
1.15192e-05
-1.98667e-14
1.22173e-05
2.74465e-14
1.29154e-05
2.06166e-14
1.36136e-05
-1.60407e-14
1.43117e-05
4.61482e-15
1.50098e-05
-4.69287e-15
1.5708e-05
-4.79653e-14
1.64061e-05
1.37406e-14
1.71042e-05
-3.2372e-14
1.78024e-05
3.51875e-14
1.85005e-05
2.49107e-14
1.91986e-05
-7.19155e-14
1.98967e-05
2.05949e-05
6.19741e-15
4.53785e-06
-2.85638e-17
5.23599e-06
-1.15116e-14
5.93412e-06
2.06267e-14
6.63225e-06
-5.36586e-15
7.33038e-06
-1.22119e-15
8.02851e-06
4.753e-17
8.72664e-06
-1.23926e-14
9.42478e-06
1.32272e-14
1.01229e-05
1.88936e-14
1.0821e-05
4.96514e-15
1.15192e-05
7.15352e-15
1.22173e-05
1.48882e-14
1.29154e-05
-3.53395e-14
1.36136e-05
1.65519e-18
1.43117e-05
4.31422e-14
1.50098e-05
-1.35634e-14
1.5708e-05
2.82597e-14
1.64061e-05
-2.45185e-15
1.71042e-05
1.02416e-14
1.78024e-05
-2.38051e-14
1.85005e-05
-1.38706e-14
1.91986e-05
4.55641e-14
1.98967e-05
2.05949e-05
-5.17012e-15
4.53785e-06
7.4555e-15
5.23599e-06
7.5682e-16
5.93412e-06
-6.83876e-15
6.63225e-06
9.97543e-15
7.33038e-06
1.66514e-15
8.02851e-06
-9.21804e-15
8.72664e-06
1.346e-14
9.42478e-06
-2.32209e-14
1.01229e-05
-1.04709e-14
1.0821e-05
1.72734e-14
1.15192e-05
3.02728e-15
1.22173e-05
-1.1397e-14
1.29154e-05
1.98176e-14
1.36136e-05
4.67936e-15
1.43117e-05
-5.03048e-14
1.50098e-05
2.4046e-14
1.5708e-05
6.66057e-15
1.64061e-05
-1.42586e-14
1.71042e-05
-1.64691e-15
1.78024e-05
6.80866e-15
1.85005e-05
-1.44417e-14
1.91986e-05
-5.07532e-14
1.98967e-05
2.05949e-05
1.49916e-15
4.53785e-06
-1.0897e-14
5.23599e-06
6.59966e-15
5.93412e-06
-7.26489e-15
6.63225e-06
-6.1747e-15
7.33038e-06
-2.48816e-15
8.02851e-06
9.65082e-16
8.72664e-06
4.36538e-15
9.42478e-06
8.90144e-15
1.01229e-05
-1.38613e-14
1.0821e-05
-1.06895e-14
1.15192e-05
-6.2498e-15
1.22173e-05
1.28738e-16
1.29154e-05
3.43955e-15
1.36136e-05
1.10457e-14
1.43117e-05
1.77669e-14
1.50098e-05
-1.768e-14
1.5708e-05
-9.95264e-15
1.64061e-05
-3.32911e-15
1.71042e-05
3.29692e-14
1.78024e-05
1.04225e-14
1.85005e-05
-3.00615e-14
1.91986e-05
5.99978e-14
1.98967e-05
2.05949e-05
-6.21542e-15
4.53785e-06
3.87937e-15
5.23599e-06
-1.5422e-14
5.93412e-06
7.06527e-15
6.63225e-06
2.21082e-15
7.33038e-06
-1.42906e-15
8.02851e-06
5.49447e-15
8.72664e-06
-1.32247e-14
9.42478e-06
-6.04538e-15
1.01229e-05
1.74523e-14
1.0821e-05
-2.08864e-14
1.15192e-05
2.14454e-14
1.22173e-05
-1.91327e-14
1.29154e-05
7.31726e-15
1.36136e-05
-3.84829e-14
1.43117e-05
1.29236e-14
1.50098e-05
1.88395e-15
1.5708e-05
-5.71623e-15
1.64061e-05
7.58536e-15
1.71042e-05
-2.766e-14
1.78024e-05
-1.40921e-14
1.85005e-05
5.31419e-14
1.91986e-05
-3.90822e-14
1.98967e-05
2.05949e-05
8.92517e-15
4.53785e-06
2.28902e-15
5.23599e-06
2.22453e-15
5.93412e-06
-6.61627e-15
6.63225e-06
3.38837e-15
7.33038e-06
3.90712e-15
8.02851e-06
6.42048e-15
8.72664e-06
7.15804e-15
9.42478e-06
-6.809e-15
1.01229e-05
-6.98228e-15
1.0821e-05
9.0664e-15
1.15192e-05
-6.75808e-15
1.22173e-05
2.88914e-14
1.29154e-05
1.22346e-14
1.36136e-05
-4.80202e-15
1.43117e-05
-2.50254e-14
1.50098e-05
-3.85879e-15
1.5708e-05
-3.60643e-15
1.64061e-05
2.04868e-14
1.71042e-05
2.1763e-14
1.78024e-05
-3.46561e-15
1.85005e-05
-2.90405e-14
1.91986e-05
1.6685e-15
1.98967e-05
2.05949e-05
4.6307e-15
4.53785e-06
-5.79733e-15
5.23599e-06
1.61511e-14
5.93412e-06
5.97428e-15
6.63225e-06
8.55513e-15
7.33038e-06
-4.22433e-15
8.02851e-06
8.18752e-15
8.72664e-06
-6.99935e-15
9.42478e-06
2.42304e-14
1.01229e-05
7.76951e-15
1.0821e-05
2.27654e-14
1.15192e-05
-8.34752e-15
1.22173e-05
7.40412e-15
1.29154e-05
-2.82637e-14
1.36136e-05
4.57131e-14
1.43117e-05
8.22222e-15
1.50098e-05
2.82281e-14
1.5708e-05
2.34059e-15
1.64061e-05
6.94759e-15
1.71042e-05
-2.21476e-14
1.78024e-05
3.41159e-14
1.85005e-05
3.73871e-15
1.91986e-05
3.23533e-14
1.98967e-05
2.05949e-05
-6.71479e-15
4.53785e-06
7.30697e-15
5.23599e-06
-1.11007e-14
5.93412e-06
4.24148e-15
6.63225e-06
-1.51015e-14
7.33038e-06
5.21003e-15
8.02851e-06
-1.70135e-14
8.72664e-06
3.9404e-15
9.42478e-06
2.96084e-16
1.01229e-05
-6.60987e-15
1.0821e-05
-1.3705e-14
1.15192e-05
-1.01836e-14
1.22173e-05
-1.82136e-14
1.29154e-05
-1.43683e-14
1.36136e-05
-2.33394e-14
1.43117e-05
2.53461e-14
1.50098e-05
-2.90695e-14
1.5708e-05
7.83009e-15
1.64061e-05
-3.54119e-14
1.71042e-05
4.51671e-15
1.78024e-05
-4.2366e-14
1.85005e-05
5.87437e-16
1.91986e-05
8.73907e-15
1.98967e-05
2.05949e-05
-5.98585e-15
4.53785e-06
-2.18177e-16
5.23599e-06
6.43577e-15
5.93412e-06
-6.06325e-15
6.63225e-06
2.09296e-15
7.33038e-06
-1.61755e-14
8.02851e-06
1.88314e-14
8.72664e-06
2.35151e-15
9.42478e-06
-9.17091e-15
1.01229e-05
4.71106e-15
1.0821e-05
-2.16263e-14
1.15192e-05
2.96453e-14
1.22173e-05
9.29103e-15
1.29154e-05
1.89099e-14
1.36136e-05
-4.46503e-15
1.43117e-05
-3.0155e-14
1.50098e-05
2.62183e-14
1.5708e-05
-4.35183e-16
1.64061e-05
2.11743e-14
1.71042e-05
-1.87097e-14
1.78024e-05
3.92303e-15
1.85005e-05
2.91594e-14
1.91986e-05
-1.52328e-14
1.98967e-05
2.05949e-05
8.67611e-15
4.53785e-06
-1.2292e-14
5.23599e-06
-1.88301e-15
5.93412e-06
-8.90117e-15
6.63225e-06
5.10776e-15
7.33038e-06
2.19919e-14
8.02851e-06
-1.22637e-14
8.72664e-06
5.37447e-15
9.42478e-06
-4.45506e-15
1.01229e-05
1.43061e-14
1.0821e-05
7.32662e-15
1.15192e-05
-7.04045e-15
1.22173e-05
-2.39954e-14
1.29154e-05
7.55872e-15
1.36136e-05
-9.79934e-15
1.43117e-05
1.62387e-14
1.50098e-05
-4.02914e-14
1.5708e-05
-1.44422e-14
1.64061e-05
1.37059e-14
1.71042e-05
7.89766e-15
1.78024e-05
3.92568e-14
1.85005e-05
-4.27542e-14
1.91986e-05
8.85171e-15
1.98967e-05
2.05949e-05
-9.39851e-15
4.53785e-06
-5.19979e-16
5.23599e-06
-7.52833e-15
5.93412e-06
4.41205e-15
6.63225e-06
-3.78305e-15
7.33038e-06
-1.33834e-14
8.02851e-06
2.11038e-15
8.72664e-06
-8.52643e-15
9.42478e-06
1.00277e-14
1.01229e-05
-1.86486e-15
1.0821e-05
2.0203e-14
1.15192e-05
7.01276e-15
1.22173e-05
-7.51104e-15
1.29154e-05
-2.36067e-14
1.36136e-05
2.04209e-15
1.43117e-05
-1.48286e-14
1.50098e-05
1.38837e-14
1.5708e-05
-2.38626e-15
1.64061e-05
-2.04105e-14
1.71042e-05
7.0172e-15
1.78024e-05
-1.20634e-14
1.85005e-05
2.59461e-14
1.91986e-05
-1.84444e-15
1.98967e-05
2.05949e-05
1.13362e-14
4.53785e-06
4.81413e-16
5.23599e-06
5.35738e-15
5.93412e-06
1.13039e-14
6.63225e-06
-4.86902e-15
7.33038e-06
1.11047e-15
8.02851e-06
8.15837e-15
8.72664e-06
-1.30433e-14
9.42478e-06
-5.94882e-15
1.01229e-05
1.99744e-15
1.0821e-05
-2.43851e-14
1.15192e-05
-1.61885e-14
1.22173e-05
3.27875e-14
1.29154e-05
3.054e-15
1.36136e-05
1.44465e-14
1.43117e-05
2.69029e-14
1.50098e-05
-7.73656e-15
1.5708e-05
4.44187e-15
1.64061e-05
1.79988e-14
1.71042e-05
-2.18159e-14
1.78024e-05
-8.20936e-15
1.85005e-05
6.08449e-15
1.91986e-05
-3.89202e-14
1.98967e-05
2.05949e-05
1.36991e-16
9.81747e-07
2.42133e-16
1.37445e-06
3.77093e-16
1.76715e-06
-1.33925e-15
2.15984e-06
-3.68146e-15
2.55254e-06
2.94524e-06
5.95164e-15
1.85536e-18
9.81747e-07
-3.88773e-16
1.37445e-06
-2.60401e-15
1.76715e-06
1.94374e-15
2.15984e-06
8.06628e-15
2.55254e-06
2.94524e-06
-9.02966e-15
-1.16438e-16
9.81747e-07
1.86414e-16
1.37445e-06
-1.56227e-15
1.76715e-06
-4.21249e-15
2.15984e-06
-7.49831e-15
2.55254e-06
2.94524e-06
7.72388e-16
8.69727e-17
9.81747e-07
-1.01877e-16
1.37445e-06
2.6932e-15
1.76715e-06
7.44288e-15
2.15984e-06
3.25994e-15
2.55254e-06
2.94524e-06
-2.7978e-15
-4.83542e-17
9.81747e-07
3.95521e-17
1.37445e-06
1.94318e-16
1.76715e-06
-1.80598e-15
2.15984e-06
-4.20836e-15
2.55254e-06
2.94524e-06
5.01347e-15
-1.80074e-16
9.81747e-07
4.32544e-18
1.37445e-06
-1.84775e-15
1.76715e-06
-3.88607e-15
2.15984e-06
3.15732e-15
2.55254e-06
2.94524e-06
4.98213e-16
2.53989e-16
9.81747e-07
2.55432e-16
1.37445e-06
2.06602e-15
1.76715e-06
4.5042e-15
2.15984e-06
-2.30984e-15
2.55254e-06
2.94524e-06
5.41018e-16
2.16763e-17
9.81747e-07
-3.21595e-16
1.37445e-06
-1.14878e-15
1.76715e-06
-5.2855e-15
2.15984e-06
-3.76617e-16
2.55254e-06
2.94524e-06
-5.63964e-15
-1.43381e-16
9.81747e-07
1.66441e-16
1.37445e-06
4.19125e-15
1.76715e-06
6.3495e-15
2.15984e-06
-8.05511e-16
2.55254e-06
2.94524e-06
8.39376e-16
-6.8772e-17
9.81747e-07
-9.20095e-17
1.37445e-06
-2.76933e-15
1.76715e-06
-3.68663e-16
2.15984e-06
-1.45072e-15
2.55254e-06
2.94524e-06
-1.76513e-16
1.66365e-16
9.81747e-07
-8.86418e-17
1.37445e-06
5.69747e-16
1.76715e-06
-2.10345e-15
2.15984e-06
9.6601e-15
2.55254e-06
2.94524e-06
5.29046e-15
-1.77752e-16
9.81747e-07
-2.04506e-17
1.37445e-06
-3.45353e-16
1.76715e-06
-4.17261e-15
2.15984e-06
-2.62229e-15
2.55254e-06
2.94524e-06
5.36967e-15
1.77819e-16
9.81747e-07
2.05314e-17
1.37445e-06
3.45545e-16
1.76715e-06
4.17277e-15
2.15984e-06
2.62234e-15
2.55254e-06
2.94524e-06
-5.36954e-15
-1.66316e-16
9.81747e-07
8.87153e-17
1.37445e-06
-5.69538e-16
1.76715e-06
2.10355e-15
2.15984e-06
-9.65997e-15
2.55254e-06
2.94524e-06
-5.29004e-15
6.88197e-17
9.81747e-07
9.20671e-17
1.37445e-06
2.76943e-15
1.76715e-06
3.68881e-16
2.15984e-06
1.45093e-15
2.55254e-06
2.94524e-06
1.76771e-16
1.43412e-16
9.81747e-07
-1.66351e-16
1.37445e-06
-4.19106e-15
1.76715e-06
-6.34938e-15
2.15984e-06
8.05863e-16
2.55254e-06
2.94524e-06
-8.39253e-16
-2.16521e-17
9.81747e-07
3.21745e-16
1.37445e-06
1.14902e-15
1.76715e-06
5.2857e-15
2.15984e-06
3.77005e-16
2.55254e-06
2.94524e-06
5.63981e-15
-2.53931e-16
9.81747e-07
-2.55392e-16
1.37445e-06
-2.06587e-15
1.76715e-06
-4.50402e-15
2.15984e-06
2.31034e-15
2.55254e-06
2.94524e-06
-5.40758e-16
1.80118e-16
9.81747e-07
-4.31178e-18
1.37445e-06
1.84785e-15
1.76715e-06
3.88624e-15
2.15984e-06
-3.15691e-15
2.55254e-06
2.94524e-06
-4.98155e-16
4.84017e-17
9.81747e-07
-3.94983e-17
1.37445e-06
-1.94192e-16
1.76715e-06
1.80618e-15
2.15984e-06
4.20857e-15
2.55254e-06
2.94524e-06
-5.0132e-15
-8.69686e-17
9.81747e-07
1.01997e-16
1.37445e-06
-2.69311e-15
1.76715e-06
-7.44263e-15
2.15984e-06
-3.25969e-15
2.55254e-06
2.94524e-06
2.79834e-15
1.16477e-16
9.81747e-07
-1.86323e-16
1.37445e-06
1.56246e-15
1.76715e-06
4.21264e-15
2.15984e-06
7.49874e-15
2.55254e-06
2.94524e-06
-7.72094e-16
-1.79955e-18
9.81747e-07
3.88812e-16
1.37445e-06
2.60418e-15
1.76715e-06
-1.94363e-15
2.15984e-06
-8.06614e-15
2.55254e-06
2.94524e-06
9.0299e-15
-1.36914e-16
-2.42098e-16
-3.76945e-16
1.33934e-15
3.68179e-15
-5.95104e-15
-1.13359e-14
4.53785e-06
-4.80738e-16
5.23599e-06
-5.35698e-15
5.93412e-06
-1.1303e-14
6.63225e-06
4.86894e-15
7.33038e-06
-1.10848e-15
8.02851e-06
-8.15754e-15
8.72664e-06
1.30448e-14
9.42478e-06
5.95044e-15
1.01229e-05
-1.99535e-15
1.0821e-05
2.4388e-14
1.15192e-05
1.61908e-14
1.22173e-05
-3.27837e-14
1.29154e-05
-3.04965e-15
1.36136e-05
-1.44383e-14
1.43117e-05
-2.68993e-14
1.50098e-05
7.74128e-15
1.5708e-05
-4.43393e-15
1.64061e-05
-1.79975e-14
1.71042e-05
2.18249e-14
1.78024e-05
8.21648e-15
1.85005e-05
-6.08039e-15
1.91986e-05
3.8923e-14
1.98967e-05
2.05949e-05
9.3994e-15
4.53785e-06
5.20396e-16
5.23599e-06
7.52854e-15
5.93412e-06
-4.41142e-15
6.63225e-06
3.78454e-15
7.33038e-06
1.33856e-14
8.02851e-06
-2.10915e-15
8.72664e-06
8.53052e-15
9.42478e-06
-1.00261e-14
1.01229e-05
1.86675e-15
1.0821e-05
-2.02017e-14
1.15192e-05
-7.01095e-15
1.22173e-05
7.51296e-15
1.29154e-05
2.36117e-14
1.36136e-05
-2.03855e-15
1.43117e-05
1.4836e-14
1.50098e-05
-1.38785e-14
1.5708e-05
2.39408e-15
1.64061e-05
2.04123e-14
1.71042e-05
-7.01236e-15
1.78024e-05
1.20711e-14
1.85005e-05
-2.59392e-14
1.91986e-05
1.8545e-15
1.98967e-05
2.05949e-05
-8.67588e-15
4.53785e-06
1.22925e-14
5.23599e-06
1.88389e-15
5.93412e-06
8.90328e-15
6.63225e-06
-5.10732e-15
7.33038e-06
-2.19898e-14
8.02851e-06
1.22649e-14
8.72664e-06
-5.37325e-15
9.42478e-06
4.45819e-15
1.01229e-05
-1.43052e-14
1.0821e-05
-7.32601e-15
1.15192e-05
7.04345e-15
1.22173e-05
2.39967e-14
1.29154e-05
-7.55362e-15
1.36136e-05
9.80418e-15
1.43117e-05
-1.62358e-14
1.50098e-05
4.02951e-14
1.5708e-05
1.44494e-14
1.64061e-05
-1.37047e-14
1.71042e-05
-7.89497e-15
1.78024e-05
-3.92456e-14
1.85005e-05
4.27515e-14
1.91986e-05
-8.84643e-15
1.98967e-05
2.05949e-05
5.98611e-15
4.53785e-06
2.19294e-16
5.23599e-06
-6.4351e-15
5.93412e-06
6.06422e-15
6.63225e-06
-2.0923e-15
7.33038e-06
1.61768e-14
8.02851e-06
-1.88295e-14
8.72664e-06
-2.351e-15
9.42478e-06
9.17324e-15
1.01229e-05
-4.71088e-15
1.0821e-05
2.16278e-14
1.15192e-05
-2.96436e-14
1.22173e-05
-9.28849e-15
1.29154e-05
-1.89035e-14
1.36136e-05
4.46963e-15
1.43117e-05
3.01594e-14
1.50098e-05
-2.62191e-14
1.5708e-05
4.38979e-16
1.64061e-05
-2.1169e-14
1.71042e-05
1.87154e-14
1.78024e-05
-3.91781e-15
1.85005e-05
-2.91547e-14
1.91986e-05
1.52348e-14
1.98967e-05
2.05949e-05
6.71545e-15
4.53785e-06
-7.30651e-15
5.23599e-06
1.11012e-14
5.93412e-06
-4.24094e-15
6.63225e-06
1.51028e-14
7.33038e-06
-5.20946e-15
8.02851e-06
1.70147e-14
8.72664e-06
-3.93962e-15
9.42478e-06
-2.92922e-16
1.01229e-05
6.61106e-15
1.0821e-05
1.37064e-14
1.15192e-05
1.01858e-14
1.22173e-05
1.82204e-14
1.29154e-05
1.43683e-14
1.36136e-05
2.33435e-14
1.43117e-05
-2.5342e-14
1.50098e-05
2.90736e-14
1.5708e-05
-7.82632e-15
1.64061e-05
3.54191e-14
1.71042e-05
-4.51042e-15
1.78024e-05
4.2377e-14
1.85005e-05
-5.79307e-16
1.91986e-05
-8.73101e-15
1.98967e-05
2.05949e-05
-4.63012e-15
4.53785e-06
5.79773e-15
5.23599e-06
-1.61503e-14
5.93412e-06
-5.97439e-15
6.63225e-06
-8.55474e-15
7.33038e-06
4.22433e-15
8.02851e-06
-8.18607e-15
8.72664e-06
7.00078e-15
9.42478e-06
-2.42286e-14
1.01229e-05
-7.76745e-15
1.0821e-05
-2.2764e-14
1.15192e-05
8.35004e-15
1.22173e-05
-7.40382e-15
1.29154e-05
2.82665e-14
1.36136e-05
-4.57061e-14
1.43117e-05
-8.22166e-15
1.50098e-05
-2.82212e-14
1.5708e-05
-2.33836e-15
1.64061e-05
-6.9438e-15
1.71042e-05
2.21531e-14
1.78024e-05
-3.41029e-14
1.85005e-05
-3.73642e-15
1.91986e-05
-3.23417e-14
1.98967e-05
2.05949e-05
-8.92498e-15
4.53785e-06
-2.2886e-15
5.23599e-06
-2.22384e-15
5.93412e-06
6.61698e-15
6.63225e-06
-3.38753e-15
7.33038e-06
-3.90654e-15
8.02851e-06
-6.41778e-15
8.72664e-06
-7.15783e-15
9.42478e-06
6.81104e-15
1.01229e-05
6.98324e-15
1.0821e-05
-9.06247e-15
1.15192e-05
6.75891e-15
1.22173e-05
-2.88866e-14
1.29154e-05
-1.22314e-14
1.36136e-05
4.80663e-15
1.43117e-05
2.50275e-14
1.50098e-05
3.86545e-15
1.5708e-05
3.60973e-15
1.64061e-05
-2.04812e-14
1.71042e-05
-2.17566e-14
1.78024e-05
3.47054e-15
1.85005e-05
2.90435e-14
1.91986e-05
-1.66138e-15
1.98967e-05
2.05949e-05
6.21584e-15
4.53785e-06
-3.8789e-15
5.23599e-06
1.54222e-14
5.93412e-06
-7.06459e-15
6.63225e-06
-2.21009e-15
7.33038e-06
1.43005e-15
8.02851e-06
-5.49251e-15
8.72664e-06
1.32269e-14
9.42478e-06
6.04539e-15
1.01229e-05
-1.74498e-14
1.0821e-05
2.08895e-14
1.15192e-05
-2.14447e-14
1.22173e-05
1.91353e-14
1.29154e-05
-7.31448e-15
1.36136e-05
3.84885e-14
1.43117e-05
-1.29217e-14
1.50098e-05
-1.88029e-15
1.5708e-05
5.7202e-15
1.64061e-05
-7.58361e-15
1.71042e-05
2.76608e-14
1.78024e-05
1.41021e-14
1.85005e-05
-5.31398e-14
1.91986e-05
3.90909e-14
1.98967e-05
2.05949e-05
-1.49856e-15
4.53785e-06
1.08975e-14
5.23599e-06
-6.59916e-15
5.93412e-06
7.26601e-15
6.63225e-06
6.17549e-15
7.33038e-06
2.48898e-15
8.02851e-06
-9.64547e-16
8.72664e-06
-4.36408e-15
9.42478e-06
-8.89921e-15
1.01229e-05
1.38618e-14
1.0821e-05
1.06926e-14
1.15192e-05
6.25194e-15
1.22173e-05
-1.25413e-16
1.29154e-05
-3.43875e-15
1.36136e-05
-1.10418e-14
1.43117e-05
-1.77622e-14
1.50098e-05
1.76826e-14
1.5708e-05
9.95592e-15
1.64061e-05
3.33258e-15
1.71042e-05
-3.29644e-14
1.78024e-05
-1.0419e-14
1.85005e-05
3.007e-14
1.91986e-05
-5.99893e-14
1.98967e-05
2.05949e-05
5.17028e-15
4.53785e-06
-7.45536e-15
5.23599e-06
-7.56697e-16
5.93412e-06
6.83975e-15
6.63225e-06
-9.97347e-15
7.33038e-06
-1.66461e-15
8.02851e-06
9.21956e-15
8.72664e-06
-1.34579e-14
9.42478e-06
2.32226e-14
1.01229e-05
1.04725e-14
1.0821e-05
-1.72712e-14
1.15192e-05
-3.02679e-15
1.22173e-05
1.13991e-14
1.29154e-05
-1.98157e-14
1.36136e-05
-4.67624e-15
1.43117e-05
5.03086e-14
1.50098e-05
-2.40445e-14
1.5708e-05
-6.65845e-15
1.64061e-05
1.42623e-14
1.71042e-05
1.65242e-15
1.78024e-05
-6.80974e-15
1.85005e-05
1.44445e-14
1.91986e-05
5.07599e-14
1.98967e-05
2.05949e-05
-6.19716e-15
4.53785e-06
2.89198e-17
5.23599e-06
1.15118e-14
5.93412e-06
-2.06261e-14
6.63225e-06
5.36737e-15
7.33038e-06
1.2227e-15
8.02851e-06
-4.61792e-17
8.72664e-06
1.23951e-14
9.42478e-06
-1.32251e-14
1.01229e-05
-1.88938e-14
1.0821e-05
-4.9636e-15
1.15192e-05
-7.15285e-15
1.22173e-05
-1.48853e-14
1.29154e-05
3.53406e-14
1.36136e-05
1.04456e-18
1.43117e-05
-4.31355e-14
1.50098e-05
1.35637e-14
1.5708e-05
-2.82542e-14
1.64061e-05
2.45864e-15
1.71042e-05
-1.02395e-14
1.78024e-05
2.38039e-14
1.85005e-05
1.38813e-14
1.91986e-05
-4.556e-14
1.98967e-05
2.05949e-05
-1.90635e-15
4.53785e-06
1.13098e-15
5.23599e-06
-2.16615e-14
5.93412e-06
9.62451e-15
6.63225e-06
1.51377e-14
7.33038e-06
-1.4064e-14
8.02851e-06
8.09333e-15
8.72664e-06
-2.69585e-14
9.42478e-06
-1.96406e-15
1.01229e-05
2.97173e-14
1.0821e-05
-1.17447e-14
1.15192e-05
1.98683e-14
1.22173e-05
-2.74442e-14
1.29154e-05
-2.06142e-14
1.36136e-05
1.60419e-14
1.43117e-05
-4.61257e-15
1.50098e-05
4.69339e-15
1.5708e-05
4.79677e-14
1.64061e-05
-1.37352e-14
1.71042e-05
3.23733e-14
1.78024e-05
-3.51849e-14
1.85005e-05
-2.48985e-14
1.91986e-05
7.1918e-14
1.98967e-05
2.05949e-05
1.90677e-15
4.53785e-06
-1.13038e-15
5.23599e-06
2.16621e-14
5.93412e-06
-9.62381e-15
6.63225e-06
-1.51364e-14
7.33038e-06
1.40651e-14
8.02851e-06
-8.093e-15
8.72664e-06
2.69613e-14
9.42478e-06
1.96702e-15
1.01229e-05
-2.9716e-14
1.0821e-05
1.17462e-14
1.15192e-05
-1.98667e-14
1.22173e-05
2.74465e-14
1.29154e-05
2.06166e-14
1.36136e-05
-1.60407e-14
1.43117e-05
4.61482e-15
1.50098e-05
-4.69287e-15
1.5708e-05
-4.79653e-14
1.64061e-05
1.37406e-14
1.71042e-05
-3.2372e-14
1.78024e-05
3.51875e-14
1.85005e-05
2.49107e-14
1.91986e-05
-7.19155e-14
1.98967e-05
2.05949e-05
6.19741e-15
4.53785e-06
-2.85638e-17
5.23599e-06
-1.15116e-14
5.93412e-06
2.06267e-14
6.63225e-06
-5.36586e-15
7.33038e-06
-1.22119e-15
8.02851e-06
4.753e-17
8.72664e-06
-1.23926e-14
9.42478e-06
1.32272e-14
1.01229e-05
1.88936e-14
1.0821e-05
4.96514e-15
1.15192e-05
7.15352e-15
1.22173e-05
1.48882e-14
1.29154e-05
-3.53395e-14
1.36136e-05
1.65519e-18
1.43117e-05
4.31422e-14
1.50098e-05
-1.35634e-14
1.5708e-05
2.82597e-14
1.64061e-05
-2.45185e-15
1.71042e-05
1.02416e-14
1.78024e-05
-2.38051e-14
1.85005e-05
-1.38706e-14
1.91986e-05
4.55641e-14
1.98967e-05
2.05949e-05
-5.17012e-15
4.53785e-06
7.4555e-15
5.23599e-06
7.5682e-16
5.93412e-06
-6.83876e-15
6.63225e-06
9.97543e-15
7.33038e-06
1.66514e-15
8.02851e-06
-9.21804e-15
8.72664e-06
1.346e-14
9.42478e-06
-2.32209e-14
1.01229e-05
-1.04709e-14
1.0821e-05
1.72734e-14
1.15192e-05
3.02728e-15
1.22173e-05
-1.1397e-14
1.29154e-05
1.98176e-14
1.36136e-05
4.67936e-15
1.43117e-05
-5.03048e-14
1.50098e-05
2.4046e-14
1.5708e-05