/*--------------------------------*- C++ -*----------------------------------*\
  =========                 |
  \\      /  F ield         | OpenFOAM: The Open Source CFD Toolbox
   \\    /   O peration     | Website:  https://openfoam.org
    \\  /    A nd           | Version:  11
     \\/     M anipulation  |
\*---------------------------------------------------------------------------*/
FoamFile
{
    format      ascii;
    class       volScalarField;
    location    "0.28";
    object      p;
}
// * * * * * * * * * * * * * * * * * * * * * * * * * * * * * * * * * * * * * //

dimensions      [0 2 -2 0 0 0 0];

internalField   nonuniform List<scalar> 
2880
(
-0.465548
-0.449675
-0.448467
-0.459898
-0.484564
-0.538023
-0.467468
-0.453334
-0.455965
-0.471687
-0.497808
-0.556308
-0.471519
-0.45823
-0.465336
-0.482419
-0.50533
-0.539817
-0.472642
-0.462016
-0.471863
-0.489575
-0.509709
-0.531266
-0.469836
-0.464641
-0.476543
-0.494492
-0.51339
-0.529623
-0.46929
-0.467228
-0.480382
-0.498526
-0.517331
-0.531935
-0.470748
-0.470183
-0.483848
-0.502178
-0.521386
-0.536421
-0.472393
-0.473386
-0.487057
-0.505558
-0.525401
-0.541874
-0.474034
-0.47667
-0.489996
-0.508655
-0.529244
-0.547508
-0.475662
-0.479891
-0.492601
-0.511414
-0.532789
-0.552923
-0.477242
-0.482929
-0.494795
-0.513763
-0.535921
-0.557876
-0.478727
-0.485683
-0.496525
-0.515639
-0.538547
-0.56218
-0.480086
-0.488028
-0.497863
-0.517014
-0.540565
-0.565704
-0.481306
-0.489962
-0.498783
-0.51789
-0.541862
-0.568403
-0.482388
-0.491459
-0.499291
-0.518233
-0.542422
-0.570273
-0.483345
-0.492515
-0.499385
-0.518019
-0.542371
-0.57143
-0.484211
-0.493167
-0.499119
-0.517377
-0.54177
-0.572121
-0.484999
-0.493488
-0.498653
-0.516467
-0.540585
-0.572464
-0.485678
-0.493627
-0.498176
-0.515444
-0.538874
-0.572539
-0.484754
-0.49388
-0.497933
-0.514569
-0.536857
-0.572697
-0.48282
-0.494787
-0.49832
-0.514241
-0.534947
-0.573287
-0.483645
-0.496702
-0.499873
-0.514812
-0.53326
-0.572723
-0.486169
-0.499132
-0.502654
-0.515921
-0.530519
-0.564879
-0.487311
-0.500777
-0.503246
-0.513657
-0.52469
-0.552252
-0.261103
-0.161417
-0.117521
-0.0891908
-0.0609889
-0.0336297
-0.00800591
0.0155017
0.0368787
0.0562111
0.0736634
0.0894469
0.103772
0.116811
0.128677
0.139422
0.149057
0.157576
0.164899
0.170794
0.175829
0.184945
0.203947
0.186857
-0.381866
-0.291819
-0.229253
-0.186975
-0.150616
-0.115685
-0.0828408
-0.0525505
-0.0249493
-1.91418e-05
0.022371
0.0424406
0.0604431
0.0766117
0.0911206
0.104071
0.11551
0.125466
0.133933
0.140836
0.146835
0.15653
0.175185
0.159894
-0.440233
-0.37695
-0.321877
-0.278527
-0.238428
-0.199477
-0.161087
-0.124614
-0.0908109
-0.0599956
-0.0322356
-0.0074123
0.0147067
0.0343871
0.0518622
0.0672973
0.0807956
0.092441
0.102311
0.110473
0.117637
0.127946
0.146209
0.134084
-0.482128
-0.433666
-0.393524
-0.359423
-0.322664
-0.282695
-0.241452
-0.200089
-0.160507
-0.123721
-0.0902308
-0.0601714
-0.0334296
-0.009763
0.0110989
0.0293882
0.0452819
0.0589351
0.0705076
0.0801896
0.0887117
0.0997146
0.117615
0.109572
-0.510044
-0.475585
-0.450196
-0.427569
-0.399655
-0.363827
-0.322267
-0.278048
-0.233627
-0.191059
-0.151602
-0.115847
-0.0839326
-0.0557231
-0.0309564
-0.00934856
0.00935539
0.0253921
0.0390055
0.0504946
0.0605788
0.0723991
0.0900013
0.0865553
-0.527746
-0.508911
-0.495413
-0.484315
-0.46699
-0.439413
-0.401848
-0.357314
-0.309456
-0.261636
-0.216164
-0.174331
-0.136694
-0.103337
-0.0740721
-0.0485994
-0.0265961
-0.00774177
0.00829576
0.0219056
0.0337853
0.0465952
0.0639629
0.0652562
-0.541236
-0.535924
-0.532607
-0.531365
-0.524895
-0.507475
-0.477217
-0.435678
-0.386605
-0.334618
-0.283399
-0.235265
-0.191426
-0.152327
-0.117947
-0.0880181
-0.0621756
-0.0400224
-0.0211398
-0.0050698
0.00888516
0.0228899
0.0401442
0.0460542
-0.553033
-0.558116
-0.563962
-0.570834
-0.573897
-0.566972
-0.545878
-0.510325
-0.462872
-0.408491
-0.352263
-0.297886
-0.247525
-0.202182
-0.162117
-0.127163
-0.0969458
-0.0710059
-0.0488481
-0.0299546
-0.0136126
0.00187142
0.0192832
0.0294216
-0.563787
-0.576703
-0.590175
-0.604059
-0.614843
-0.617152
-0.605683
-0.577962
-0.535041
-0.480752
-0.42094
-0.360826
-0.303905
-0.25201
-0.205832
-0.165394
-0.130361
-0.100218
-0.0744014
-0.0523313
-0.0333031
-0.0159853
0.00194253
0.0156701
-0.573502
-0.592345
-0.611723
-0.631254
-0.648185
-0.657707
-0.654792
-0.635415
-0.598925
-0.547538
-0.486386
-0.42178
-0.358768
-0.300357
-0.247906
-0.201769
-0.161694
-0.127077
-0.0973368
-0.0718448
-0.0498988
-0.0304103
-0.0115603
0.00502042
-0.582047
-0.605299
-0.628866
-0.65235
-0.67363
-0.688449
-0.691957
-0.680032
-0.650312
-0.603741
-0.543906
-0.477009
-0.409255
-0.345005
-0.286566
-0.23477
-0.189858
-0.150813
-0.117152
-0.0881826
-0.0632154
-0.0413555
-0.0211765
-0.00238397
-0.589319
-0.615691
-0.641842
-0.667454
-0.691003
-0.708939
-0.716571
-0.70978
-0.685826
-0.644449
-0.587965
-0.521369
-0.451183
-0.382681
-0.319019
-0.262998
-0.213447
-0.169945
-0.133001
-0.100826
-0.0730591
-0.0489053
-0.0271647
-0.00673768
-0.595318
-0.623661
-0.65096
-0.676964
-0.700658
-0.719161
-0.728341
-0.724002
-0.703647
-0.66645
-0.613853
-0.549567
-0.479527
-0.409284
-0.342947
-0.283094
-0.229966
-0.184045
-0.143774
-0.108759
-0.0789647
-0.0530578
-0.0299797
-0.00856197
-0.600196
-0.629519
-0.65672
-0.681559
-0.703455
-0.720075
-0.727968
-0.723388
-0.70391
-0.668936
-0.619384
-0.558197
-0.490207
-0.420738
-0.353963
-0.292673
-0.238254
-0.190001
-0.147758
-0.111813
-0.0809471
-0.0540262
-0.0302326
-0.00848965
-0.604309
-0.633814
-0.659895
-0.68226
-0.700695
-0.713383
-0.71746
-0.709985
-0.688825
-0.653714
-0.605682
-0.547217
-0.482147
-0.415115
-0.350041
-0.289646
-0.235322
-0.187246
-0.145415
-0.109466
-0.0785667
-0.0517743
-0.0283236
-0.00710989
-0.60801
-0.637345
-0.661554
-0.680477
-0.694233
-0.701385
-0.699716
-0.687201
-0.662235
-0.624995
-0.576858
-0.520097
-0.457903
-0.394052
-0.332016
-0.274221
-0.222003
-0.175826
-0.135662
-0.10115
-0.0716734
-0.04638
-0.0245756
-0.0050381
-0.61178
-0.640909
-0.663011
-0.677908
-0.686205
-0.686881
-0.678305
-0.659131
-0.62901
-0.588263
-0.538664
-0.482521
-0.422623
-0.362003
-0.303503
-0.249183
-0.200209
-0.157043
-0.119695
-0.0878664
-0.061045
-0.0384887
-0.0195616
-0.0030887
-0.616485
-0.645439
-0.665591
-0.676312
-0.678937
-0.672784
-0.656882
-0.630581
-0.594272
-0.549142
-0.497147
-0.440628
-0.382199
-0.324353
-0.269313
-0.218711
-0.173451
-0.133892
-0.100026
-0.0715988
-0.048198
-0.0292568
-0.0142164
-0.00219104
-0.623027
-0.652159
-0.670768
-0.677209
-0.674533
-0.661762
-0.638734
-0.605315
-0.56262
-0.512554
-0.457457
-0.399795
-0.341975
-0.286156
-0.234071
-0.186939
-0.145366
-0.109537
-0.07935
-0.0545467
-0.0348028
-0.0197804
-0.00918712
-0.00220926
-0.632265
-0.662215
-0.67957
-0.682406
-0.674529
-0.655972
-0.626428
-0.586231
-0.537286
-0.482085
-0.42342
-0.363901
-0.30586
-0.251254
-0.20127
-0.157069
-0.118795
-0.0864536
-0.0598117
-0.0385134
-0.0221945
-0.0105876
-0.00357629
-0.000318651
-0.644825
-0.676353
-0.692705
-0.692702
-0.680584
-0.657372
-0.621791
-0.575145
-0.520028
-0.459495
-0.396801
-0.334779
-0.275707
-0.221347
-0.172812
-0.130678
-0.0950082
-0.0655729
-0.0419542
-0.0236463
-0.0101304
-0.000845074
0.004862
0.00698944
-0.660704
-0.695351
-0.710893
-0.708617
-0.694006
-0.666579
-0.625596
-0.573123
-0.511787
-0.445385
-0.377823
-0.312333
-0.251254
-0.19626
-0.148244
-0.107476
-0.0737762
-0.0466851
-0.0255917
-0.00980524
0.00131808
0.00900111
0.0157076
0.0189959
-0.682208
-0.721282
-0.734665
-0.730493
-0.714122
-0.683853
-0.638971
-0.580979
-0.51307
-0.439969
-0.366413
-0.296198
-0.231908
-0.175176
-0.126716
-0.0865203
-0.0541309
-0.0288369
-0.00981075
0.00374321
0.0127564
0.0188883
0.0247584
0.0256576
-0.731723
-0.756866
-0.762903
-0.757482
-0.740992
-0.709761
-0.662232
-0.599082
-0.524223
-0.443532
-0.362873
-0.286785
-0.218244
-0.158875
-0.109209
-0.0689597
-0.0373645
-0.0134553
0.00377177
0.0152512
0.0218686
0.0249054
0.0257603
0.021215
-0.831045
-0.848031
-0.86669
-0.891527
-0.922596
-0.967437
-0.825469
-0.845965
-0.863612
-0.887912
-0.908037
-0.912085
-0.814194
-0.841715
-0.857984
-0.881076
-0.8952
-0.890491
-0.807607
-0.837746
-0.852886
-0.874222
-0.885397
-0.88017
-0.811882
-0.835386
-0.849456
-0.868613
-0.877607
-0.874865
-0.822064
-0.834336
-0.847472
-0.864107
-0.872159
-0.872449
-0.827836
-0.833552
-0.846156
-0.860503
-0.868363
-0.871051
-0.828738
-0.8327
-0.845072
-0.85765
-0.865407
-0.869766
-0.829131
-0.831707
-0.844058
-0.855167
-0.862815
-0.86807
-0.829788
-0.830512
-0.842926
-0.852808
-0.860256
-0.865653
-0.830312
-0.829008
-0.841547
-0.85043
-0.857515
-0.862365
-0.830303
-0.827083
-0.83991
-0.847957
-0.854469
-0.858256
-0.82954
-0.824738
-0.838022
-0.845386
-0.851163
-0.853405
-0.827925
-0.821983
-0.836012
-0.842781
-0.84768
-0.847978
-0.825494
-0.8188
-0.833925
-0.840269
-0.844184
-0.842274
-0.822354
-0.815246
-0.831842
-0.837992
-0.840892
-0.836917
-0.818974
-0.811377
-0.829934
-0.836179
-0.83795
-0.832564
-0.818646
-0.807818
-0.828487
-0.835187
-0.835557
-0.829975
-0.822985
-0.806205
-0.827772
-0.835395
-0.834583
-0.830439
-0.825355
-0.805747
-0.827468
-0.836853
-0.836489
-0.839424
-0.822695
-0.804923
-0.826992
-0.83917
-0.842102
-0.864657
-0.815568
-0.802743
-0.825806
-0.841842
-0.849838
-0.902178
-0.805966
-0.799433
-0.82436
-0.843854
-0.857491
-0.941625
-0.801383
-0.797213
-0.824418
-0.846029
-0.864645
-0.972245
-0.825799
-0.79571
-0.792779
-0.787997
-0.773694
-0.743905
-0.695189
-0.62766
-0.545713
-0.456553
-0.367479
-0.284087
-0.210238
-0.147573
-0.096314
-0.0557738
-0.0247824
-0.00203182
0.013759
0.0236717
0.0285134
0.0292886
0.0263002
0.0188751
-0.845014
-0.825442
-0.821645
-0.820288
-0.81062
-0.784545
-0.736687
-0.665908
-0.576835
-0.478119
-0.379518
-0.287831
-0.208274
-0.14199
-0.0888882
-0.0479018
-0.0174484
0.00413652
0.0187443
0.0277432
0.0317821
0.0320057
0.0274198
0.0204311
-0.85148
-0.846063
-0.84774
-0.852433
-0.84947
-0.82912
-0.784087
-0.711586
-0.616447
-0.508891
-0.402175
-0.304307
-0.219973
-0.150579
-0.0958741
-0.0543875
-0.0242011
-0.00385315
0.00937948
0.0180022
0.0219288
0.0228067
0.0187436
0.0152648
-0.858225
-0.861907
-0.870576
-0.882341
-0.887
-0.873709
-0.832329
-0.759583
-0.660495
-0.548034
-0.436446
-0.334753
-0.247506
-0.176473
-0.12118
-0.0792932
-0.0479105
-0.0243236
-0.00812068
0.00170117
0.00731458
0.0103162
0.0108954
0.0120936
-0.865031
-0.874711
-0.889543
-0.907561
-0.918817
-0.911144
-0.872507
-0.799706
-0.698554
-0.583498
-0.469408
-0.366235
-0.279116
-0.209397
-0.154948
-0.112812
-0.0804423
-0.0554868
-0.036114
-0.0214311
-0.0104103
-0.00211848
0.0040056
0.010501
-0.870346
-0.884449
-0.903611
-0.925762
-0.940891
-0.935019
-0.896066
-0.821432
-0.718391
-0.602341
-0.488851
-0.387854
-0.303656
-0.236584
-0.183355
-0.141061
-0.10733
-0.0802856
-0.0584174
-0.0405531
-0.025656
-0.0129834
-0.00219194
0.00789665
-0.874056
-0.89069
-0.911924
-0.935633
-0.950502
-0.941957
-0.899358
-0.820701
-0.716241
-0.601787
-0.492781
-0.396661
-0.316892
-0.252629
-0.200612
-0.158433
-0.124092
-0.095971
-0.0727042
-0.0531399
-0.0363141
-0.0211587
-0.00645143
0.00643964
-0.875857
-0.893175
-0.914412
-0.93621
-0.946643
-0.932129
-0.882656
-0.799403
-0.694653
-0.584732
-0.482525
-0.393562
-0.319726
-0.25863
-0.20864
-0.167488
-0.133362
-0.104839
-0.0807192
-0.0599817
-0.0417564
-0.025021
-0.00811033
0.00694887
-0.875539
-0.891927
-0.910961
-0.927715
-0.930293
-0.906986
-0.848817
-0.761852
-0.658608
-0.555176
-0.461263
-0.380288
-0.312011
-0.254919
-0.207463
-0.167879
-0.134588
-0.106324
-0.0820338
-0.0608456
-0.0420002
-0.0242896
-0.00558062
0.0102159
-0.873089
-0.887111
-0.901984
-0.910517
-0.90357
-0.868775
-0.802464
-0.71282
-0.61342
-0.517444
-0.431822
-0.358388
-0.295696
-0.242695
-0.198039
-0.160288
-0.128142
-0.100513
-0.0764934
-0.0553618
-0.0364593
-0.0183952
0.00126069
0.0160297
-0.868603
-0.879162
-0.887645
-0.885961
-0.867777
-0.820928
-0.747349
-0.656642
-0.562527
-0.474518
-0.396834
-0.329774
-0.272382
-0.223435
-0.181713
-0.146041
-0.115349
-0.0887159
-0.0653812
-0.0447648
-0.0262718
-0.00824449
0.0119446
0.0244654
-0.862368
-0.868739
-0.867827
-0.85561
-0.824139
-0.766223
-0.686256
-0.596473
-0.508327
-0.427903
-0.357183
-0.296024
-0.243405
-0.198191
-0.15932
-0.125814
-0.0967945
-0.0714953
-0.0492837
-0.0296766
-0.0120943
0.00553084
0.0260683
0.035509
-0.854889
-0.856384
-0.843113
-0.819754
-0.774614
-0.705821
-0.6215
-0.534317
-0.45222
-0.378595
-0.314132
-0.258245
-0.209938
-0.168181
-0.13204
-0.100697
-0.0734383
-0.0496367
-0.0287708
-0.0104305
0.00600751
0.0229995
0.0435934
0.0490947
-0.84668
-0.841436
-0.815198
-0.778529
-0.71953
-0.64093
-0.554739
-0.471085
-0.394793
-0.327293
-0.268375
-0.217223
-0.172855
-0.134333
-0.100837
-0.0716733
-0.0462511
-0.0240528
-0.00464254
0.0123196
0.0275184
0.0437997
0.0642791
0.065208
-0.838118
-0.82138
-0.785147
-0.73213
-0.658472
-0.572618
-0.486671
-0.407133
-0.336325
-0.274337
-0.220431
-0.173618
-0.132917
-0.0974608
-0.0665279
-0.0395326
-0.0159859
0.00454709
0.0224358
0.0379491
0.051813
0.0673168
0.0876889
0.0838465
-0.830209
-0.793751
-0.750501
-0.679337
-0.591749
-0.501557
-0.417431
-0.342406
-0.276855
-0.220016
-0.170782
-0.128048
-0.0908363
-0.0583397
-0.029917
-0.00506924
0.0166111
0.0354915
0.0518772
0.0659603
0.0784781
0.0931899
0.113522
0.105
-0.823059
-0.759408
-0.705871
-0.617954
-0.519783
-0.42798
-0.346933
-0.276751
-0.2164
-0.164533
-0.119799
-0.0810167
-0.047217
-0.0176398
0.00829223
0.0310112
0.0508621
0.0681548
0.0831229
0.0958548
0.107086
0.121025
0.141378
0.128587
-0.812829
-0.72436
-0.648791
-0.546603
-0.44273
-0.351899
-0.274982
-0.210018
-0.154985
-0.108099
-0.0678423
-0.032994
-0.00260596
0.0240378
0.0474643
0.0680578
0.0861177
0.101905
0.115579
0.1271
0.137168
0.150387
0.170839
0.154587
-0.78938
-0.694242
-0.581777
-0.465522
-0.360491
-0.273111
-0.201355
-0.14211
-0.0926637
-0.0509098
-0.0152302
0.0156024
0.0425016
0.0661387
0.0869995
0.105435
0.121716
0.136064
0.148571
0.159069
0.168165
0.180746
0.201378
0.18306
-0.746723
-0.660391
-0.505617
-0.375488
-0.272722
-0.191132
-0.125797
-0.0729833
-0.0295551
0.00679143
0.0377074
0.0643799
0.0876638
0.108176
0.126362
0.142551
0.156997
0.169905
0.181325
0.19101
0.19943
0.21149
0.232292
0.214492
-0.687215
-0.595032
-0.413714
-0.276142
-0.179093
-0.10563
-0.0482868
-0.00279865
0.0340971
0.0647178
0.0906523
0.112995
0.132512
0.149746
0.165098
0.178867
0.191298
0.202598
0.212845
0.221835
0.229857
0.241132
0.261498
0.251526
-0.625023
-0.477998
-0.295814
-0.165891
-0.0795468
-0.0167541
0.0309321
0.0681258
0.0979509
0.122535
0.143293
0.161161
0.176777
0.190585
0.202909
0.213995
0.224044
0.233243
0.241727
0.249398
0.256071
0.263815
0.279824
0.299025
-0.560433
-0.30435
-0.145669
-0.0437034
0.0253213
0.0746042
0.111102
0.13916
0.161489
0.179831
0.195312
0.208653
0.220326
0.23065
0.239842
0.248054
0.255389
0.261939
0.267758
0.272568
0.275578
0.27828
0.292203
0.326063
-0.395211
-0.0729642
0.0300305
0.0882429
0.133615
0.166713
0.190922
0.209373
0.224035
0.236118
0.246376
0.255277
0.263114
0.270074
0.276273
0.281776
0.286618
0.290834
0.294359
0.296638
0.29704
0.299731
0.318619
0.338344
1.50629
1.53779
1.56164
1.58195
1.54305
1.35132
1.50563
1.53359
1.54618
1.55407
1.47301
1.28631
1.50349
1.52741
1.52911
1.52336
1.43137
1.2489
1.5007
1.52175
1.51541
1.49811
1.40518
1.23893
1.50033
1.51761
1.50535
1.4789
1.38747
1.23986
1.50232
1.51424
1.49746
1.46373
1.37479
1.24374
1.50265
1.51049
1.49048
1.4514
1.36573
1.24824
1.50102
1.50609
1.48399
1.44134
1.35937
1.25288
1.49905
1.50128
1.47806
1.43324
1.35507
1.25759
1.49687
1.4963
1.47285
1.42696
1.35244
1.2623
1.49452
1.49136
1.4685
1.42238
1.3513
1.26687
1.49209
1.48666
1.4651
1.41941
1.3515
1.27143
1.48968
1.48234
1.46263
1.41795
1.3529
1.27598
1.48734
1.47853
1.46111
1.41787
1.35539
1.28056
1.48508
1.47526
1.46045
1.41904
1.3589
1.28522
1.48296
1.47254
1.46053
1.42131
1.36342
1.29007
1.48125
1.47046
1.46117
1.42448
1.36902
1.29531
1.48126
1.46904
1.4621
1.42827
1.37567
1.30126
1.48262
1.46814
1.46293
1.43231
1.38328
1.30816
1.48206
1.46725
1.46306
1.43605
1.39153
1.31607
1.47973
1.4658
1.46202
1.43859
1.39965
1.3251
1.47735
1.46361
1.45963
1.43898
1.40705
1.33817
1.47581
1.46117
1.45649
1.43793
1.41504
1.36625
1.47528
1.45936
1.45588
1.44059
1.42812
1.41955
0.151428
0.170663
0.203803
0.221675
0.241346
0.257076
0.268725
0.277639
0.284812
0.290847
0.296105
0.300794
0.30503
0.308876
0.312355
0.315467
0.318201
0.320564
0.322422
0.323124
0.322412
0.326065
0.347662
0.357666
0.514802
0.378905
0.357203
0.346009
0.343106
0.342762
0.342757
0.342826
0.343043
0.343464
0.344093
0.344905
0.345859
0.346907
0.34799
0.349044
0.350017
0.350876
0.351434
0.350984
0.349489
0.353442
0.37592
0.380643
0.724687
0.553989
0.491357
0.456382
0.435588
0.421862
0.411794
0.40407
0.398086
0.393468
0.389937
0.387278
0.385316
0.383907
0.38292
0.382233
0.381747
0.381392
0.380928
0.379609
0.377509
0.38143
0.40394
0.405526
0.854332
0.68659
0.602769
0.551654
0.517728
0.493486
0.475122
0.460789
0.449458
0.440451
0.433284
0.427592
0.423097
0.419574
0.416826
0.414677
0.412982
0.411626
0.410328
0.408307
0.40571
0.409433
0.431451
0.431015
0.945532
0.787888
0.694286
0.632931
0.589631
0.557369
0.532393
0.512637
0.496831
0.48411
0.473846
0.465571
0.458925
0.453619
0.449399
0.446037
0.443342
0.441161
0.439174
0.43659
0.433611
0.437071
0.458232
0.456483
1.01149
0.865392
0.768759
0.70146
0.651751
0.613602
0.583534
0.559465
0.540026
0.524247
0.511416
0.500997
0.492571
0.485796
0.480371
0.47602
0.472512
0.469657
0.467109
0.464086
0.460841
0.464012
0.484035
0.481474
1.05948
0.924888
0.828973
0.758652
0.704833
0.662534
0.628679
0.601288
0.578985
0.560762
0.545866
0.533717
0.523859
0.515909
0.509525
0.504387
0.500229
0.496833
0.493839
0.490493
0.487093
0.489965
0.508627
0.505627
1.09477
0.970892
0.877433
0.806006
0.749752
0.704662
0.668095
0.638233
0.613747
0.593636
0.577132
0.563637
0.552669
0.543813
0.53669
0.530948
0.526285
0.522466
0.51913
0.515567
0.51211
0.514672
0.531798
0.528641
1.12112
1.00667
0.916295
0.844923
0.787396
0.74054
0.702121
0.670499
0.644419
0.62291
0.605209
0.590712
0.578923
0.569403
0.561741
0.555552
0.550513
0.546376
0.54279
0.539103
0.535668
0.537909
0.553365
0.550257
1.14113
1.03453
0.947293
0.876616
0.81859
0.770722
0.731124
0.698325
0.67115
0.648666
0.630128
0.614936
0.602583
0.592612
0.584585
0.578088
0.572783
0.568418
0.564662
0.560929
0.557579
0.559482
0.573175
0.57026
1.15654
1.05615
0.971774
0.902091
0.844059
0.795723
0.755468
0.721963
0.69411
0.671013
0.651951
0.636329
0.623638
0.613401
0.605156
0.59847
0.592993
0.588476
0.584617
0.580902
0.57768
0.579231
0.591109
0.588478
1.16836
1.07271
0.99076
0.922152
0.864416
0.815999
0.775489
0.741662
0.713477
0.690076
0.670756
0.654935
0.642097
0.631752
0.623415
0.616637
0.611063
0.606459
0.602552
0.598906
0.595843
0.597033
0.607086
0.604787
1.17729
1.08507
1.00501
0.937433
0.880163
0.831941
0.791489
0.757652
0.729426
0.705981
0.686632
0.670807
0.657986
0.647663
0.639337
0.632545
0.626939
0.6223
0.618392
0.614851
0.611966
0.612796
0.621058
0.619107
1.18375
1.09381
1.01507
0.948404
0.891692
0.84387
0.803729
0.770141
0.742123
0.718856
0.699674
0.684009
0.671341
0.661149
0.652914
0.646172
0.640585
0.635954
0.632083
0.628675
0.625979
0.626458
0.633007
0.631396
1.18795
1.09926
1.02128
0.955397
0.899298
0.852039
0.812424
0.779315
0.751719
0.728826
0.709977
0.694613
0.682209
0.672232
0.664154
0.657512
0.651987
0.647401
0.643597
0.640341
0.637838
0.637994
0.642953
0.641651
1.1899
1.10156
1.02381
0.95861
0.903178
0.856637
0.817754
0.785336
0.75836
0.736012
0.717641
0.702694
0.690644
0.68095
0.673077
0.666575
0.661147
0.656639
0.652926
0.649834
0.64753
0.647421
0.650963
0.649844
1.18946
1.10066
1.02267
0.958104
0.903439
0.857798
0.819862
0.788349
0.762181
0.740536
0.722769
0.708336
0.696711
0.68735
0.679721
0.673392
0.66809
0.663683
0.660075
0.657143
0.655029
0.654719
0.656991
0.65578
1.18629
1.0963
1.01767
0.953798
0.900093
0.855604
0.818873
0.788494
0.763321
0.742523
0.72547
0.711631
0.700487
0.691496
0.684141
0.678009
0.672854
0.668565
0.665068
0.662281
0.660299
0.659744
0.660961
0.660005
1.17978
1.08799
1.00847
0.945514
0.893092
0.850121
0.814911
0.785919
0.761927
0.74211
0.725865
0.712683
0.702059
0.693468
0.686409
0.680498
0.675513
0.671362
0.667991
0.665345
0.663464
0.662666
0.663097
0.662584
1.16913
1.07488
0.994568
0.933037
0.882417
0.841455
0.808144
0.780803
0.758167
0.739448
0.724086
0.711607
0.701533
0.69336
0.686616
0.680945
0.676151
0.672157
0.668926
0.666422
0.664637
0.663669
0.663587
0.66339
1.15368
1.05595
0.97533
0.916143
0.868138
0.829803
0.798809
0.773369
0.752241
0.734709
0.720281
0.708532
0.699021
0.691275
0.684856
0.679439
0.67485
0.671023
0.667931
0.66555
0.663859
0.662859
0.662497
0.662433
1.13239
1.02931
0.949867
0.894678
0.850484
0.815499
0.787229
0.763893
0.744375
0.728082
0.714611
0.703598
0.694647
0.687328
0.681236
0.67608
0.671702
0.668048
0.665097
0.662827
0.661211
0.660238
0.659867
0.65986
1.09798
0.98954
0.917139
0.868827
0.829978
0.799065
0.773825
0.7527
0.734825
0.719774
0.707247
0.696951
0.688543
0.681637
0.675868
0.670971
0.666807
0.663328
0.660512
0.658333
0.656773
0.655898
0.655769
0.655714
1.00697
0.928503
0.877586
0.839711
0.807611
0.781228
0.759096
0.740142
0.723855
0.709992
0.698362
0.688742
0.680843
0.674326
0.668864
0.664217
0.660261
0.656951
0.654262
0.652153
0.650628
0.649926
0.650282
0.650076
0.855541
0.821711
0.794768
0.748748
0.658549
0.485989
0.859953
0.825146
0.800483
0.757385
0.692406
0.622388
0.869426
0.831577
0.809219
0.768006
0.718109
0.681587
0.872968
0.838579
0.818295
0.779397
0.739428
0.712254
0.868466
0.844329
0.826027
0.790241
0.75773
0.734075
0.866682
0.848886
0.83249
0.799924
0.771717
0.748459
0.868595
0.853042
0.838119
0.808173
0.781487
0.756748
0.870985
0.857219
0.843177
0.814953
0.788017
0.760864
0.873289
0.86155
0.847774
0.820443
0.792135
0.762146
0.875478
0.866189
0.852036
0.824849
0.794246
0.761151
0.877934
0.87132
0.856098
0.828301
0.794698
0.758252
0.880949
0.877073
0.860068
0.830987
0.793852
0.753676
0.884659
0.883502
0.864087
0.833142
0.79195
0.747538
0.889093
0.890573
0.868318
0.834966
0.789163
0.739877
0.89417
0.898208
0.872896
0.83665
0.785609
0.730651
0.899689
0.90625
0.877899
0.838376
0.781353
0.7198
0.905361
0.91439
0.883312
0.840312
0.776456
0.707163
0.910866
0.922206
0.888981
0.842612
0.771051
0.692446
0.915887
0.929222
0.894673
0.845406
0.765419
0.675319
0.919661
0.935049
0.900345
0.849001
0.760223
0.655832
0.918444
0.939731
0.906751
0.854745
0.757302
0.634912
0.915334
0.945127
0.91615
0.86577
0.760938
0.615372
0.92242
0.952267
0.929811
0.88282
0.772832
0.600051
0.928242
0.957507
0.939806
0.895113
0.78517
0.575157
0.79695
0.856339
0.836213
0.809894
0.784823
0.762827
0.743548
0.726563
0.711716
0.698934
0.68812
0.679113
0.671675
0.665513
0.660334
0.655921
0.65216
0.649009
0.646434
0.644372
0.642863
0.642402
0.643476
0.643019
0.750543
0.80203
0.800018
0.782643
0.763078
0.74457
0.727591
0.712244
0.698624
0.686775
0.676669
0.668195
0.661161
0.655309
0.650382
0.64618
0.642595
0.639588
0.637113
0.635075
0.633567
0.633422
0.635439
0.634616
0.747393
0.772713
0.772492
0.759243
0.743
0.726802
0.711471
0.697377
0.684735
0.673649
0.66413
0.656102
0.649405
0.643815
0.639102
0.635081
0.63165
0.628769
0.626379
0.62435
0.622838
0.623099
0.626289
0.624877
0.745532
0.755713
0.751757
0.739257
0.724485
0.709552
0.695271
0.682058
0.670146
0.65965
0.650595
0.642922
0.636494
0.631115
0.626575
0.622701
0.619394
0.616614
0.614285
0.612236
0.610663
0.611281
0.615881
0.614202
0.742974
0.743204
0.734973
0.721637
0.707106
0.692672
0.678958
0.666305
0.654899
0.644834
0.636126
0.628721
0.622497
0.617277
0.612867
0.609103
0.605885
0.603172
0.600867
0.598744
0.597001
0.597821
0.603961
0.602698
0.741175
0.732947
0.720358
0.705423
0.690396
0.675942
0.662434
0.65008
0.638992
0.629219
0.620756
0.613543
0.607465
0.602358
0.598042
0.594354
0.591196
0.58852
0.586212
0.58398
0.582038
0.583091
0.590788
0.589583
0.739827
0.7237
0.706807
0.689886
0.673936
0.659119
0.645558
0.633307
0.622388
0.612796
0.604495
0.597412
0.591433
0.586404
0.582151
0.578517
0.575399
0.572746
0.57042
0.56807
0.565938
0.567291
0.576631
0.575162
0.737294
0.714407
0.693502
0.674451
0.657346
0.64196
0.628169
0.615881
0.605023
0.595529
0.587328
0.580332
0.574419
0.569443
0.565235
0.56164
0.558552
0.555914
0.553566
0.551095
0.548775
0.550441
0.561468
0.55967
0.732839
0.704324
0.679825
0.658646
0.640288
0.624215
0.610089
0.597675
0.586807
0.57736
0.569224
0.562288
0.556426
0.55149
0.547319
0.543758
0.540699
0.538076
0.535709
0.533124
0.530617
0.532585
0.545297
0.543171
0.726497
0.693088
0.665317
0.642069
0.622438
0.605631
0.59112
0.578539
0.567633
0.558214
0.550131
0.543252
0.53744
0.532548
0.528418
0.524897
0.521874
0.519278
0.516905
0.514224
0.511541
0.513788
0.528149
0.525731
0.71836
0.680424
0.649578
0.624339
0.603466
0.585937
0.571047
0.558306
0.547372
0.537994
0.529984
0.523182
0.517442
0.512613
0.508542
0.505078
0.502108
0.499557
0.497201
0.494456
0.491622
0.494123
0.510059
0.50743
0.70836
0.666017
0.6322
0.605061
0.583026
0.564841
0.549631
0.536786
0.525875
0.516591
0.508703
0.502025
0.4964
0.491674
0.487696
0.484318
0.481429
0.478951
0.476646
0.473878
0.470934
0.473663
0.491063
0.488359
0.696308
0.649462
0.612726
0.583799
0.560733
0.54202
0.526608
0.513765
0.502978
0.493879
0.486197
0.479722
0.474282
0.46972
0.465887
0.46264
0.459872
0.457503
0.455289
0.452553
0.449554
0.452485
0.471196
0.468621
0.681881
0.630238
0.590613
0.560053
0.536154
0.517113
0.501683
0.48901
0.478497
0.469719
0.462368
0.456207
0.451052
0.446743
0.443131
0.44008
0.437486
0.435275
0.4332
0.430559
0.42757
0.430672
0.450487
0.448332
0.664621
0.607676
0.565206
0.533242
0.508796
0.489713
0.47453
0.462261
0.452229
0.443959
0.437104
0.43141
0.426676
0.422739
0.419453
0.416687
0.414343
0.412353
0.410477
0.408001
0.405096
0.408319
0.428963
0.427635
0.643845
0.580922
0.535706
0.502675
0.478089
0.459362
0.444782
0.433231
0.423954
0.416432
0.41029
0.405256
0.401118
0.397711
0.394891
0.392532
0.390543
0.38886
0.38726
0.385034
0.382292
0.38555
0.406644
0.406752
0.618569
0.548912
0.501118
0.467535
0.443378
0.425542
0.412039
0.401608
0.393433
0.38696
0.381799
0.377665
0.374343
0.371666
0.369494
0.367706
0.366216
0.364965
0.36375
0.361885
0.359391
0.362532
0.383536
0.386086
0.587372
0.510267
0.460189
0.426851
0.403922
0.387685
0.375861
0.367059
0.360411
0.355353
0.351493
0.348548
0.346307
0.344606
0.343312
0.342311
0.341518
0.34088
0.340217
0.338886
0.336761
0.339497
0.35955
0.366447
0.548212
0.463015
0.411422
0.379526
0.358902
0.345174
0.335783
0.329226
0.324618
0.321406
0.31922
0.317798
0.316945
0.316511
0.316375
0.316433
0.316606
0.316843
0.317004
0.316529
0.315029
0.316803
0.334176
0.349473
0.498228
0.404305
0.353185
0.324417
0.30748
0.297384
0.29133
0.287749
0.285775
0.284901
0.28481
0.285281
0.286155
0.287308
0.288644
0.29008
0.291552
0.293024
0.294432
0.2954
0.295225
0.295675
0.307694
0.338403
0.433735
0.330339
0.283779
0.26044
0.248871
0.243731
0.242054
0.242275
0.243599
0.24561
0.248068
0.250823
0.25377
0.256831
0.259945
0.263071
0.266184
0.269291
0.272409
0.27533
0.277447
0.279999
0.292043
0.31864
0.349864
0.236999
0.201447
0.18674
0.18249
0.183767
0.187585
0.192488
0.197824
0.203298
0.208781
0.214212
0.219558
0.224797
0.229913
0.234901
0.239769
0.244541
0.249178
0.253353
0.256886
0.263184
0.280138
0.279722
0.235918
0.121994
0.105107
0.102975
0.108147
0.117304
0.1277
0.138151
0.148215
0.157747
0.166736
0.175225
0.183262
0.190885
0.198114
0.204958
0.211418
0.21749
0.223051
0.22768
0.231531
0.239335
0.258169
0.245093
0.0514845
-0.0107026
-0.00323333
0.00994767
0.026416
0.0445666
0.0624019
0.0791434
0.0945983
0.108766
0.121746
0.133679
0.1447
0.15491
0.164372
0.173107
0.181114
0.188372
0.194754
0.19989
0.204183
0.212714
0.231892
0.215008
)
;

boundaryField
{
    rotor
    {
        type            zeroGradient;
    }
    freestream
    {
        type            freestreamPressure;
        freestreamValue uniform 0;
        supersonic      false;
        value           nonuniform List<scalar> 
96
(
0.0696256
0.0548511
0.042219
0.0315864
0.0227995
0.0156874
0.0101
0.0058894
0.00286722
0.000841609
-0.000367191
-0.000956108
-0.00112148
-0.00102663
-0.000791537
-0.000512827
-0.000283818
-0.000177334
-0.000149689
-1.6242e-05
0.000210554
0.000173668
1.06591e-06
0.000201828
0.000459174
0.000751642
0.000744222
0.000761735
0.000838632
0.000776124
0.000751916
0.000935766
0.00156447
0.00276503
0.0047146
0.0076046
0.0116384
0.017042
0.0240638
0.0329679
0.0440032
0.0574349
0.0735537
0.092822
0.116721
0.148064
0.171368
0.189288
0.212456
0.239126
0.268344
0.299237
0.331251
0.363877
0.396633
0.429049
0.460666
0.491047
0.519792
0.546541
0.570983
0.59286
0.611965
0.628092
0.640898
0.650784
0.657725
0.661528
0.662161
0.659758
0.654377
0.64614
0.635181
0.621661
0.605691
0.587781
0.568154
0.546219
0.522437
0.497197
0.470733
0.443285
0.415103
0.386447
0.357581
0.328773
0.300304
0.27249
0.245745
0.220677
0.198271
0.180223
0.159068
0.130643
0.106607
0.0867233
)
;
    }
    frontAndBack
    {
        type            empty;
    }
}


// ************************************************************************* //
