/*--------------------------------*- C++ -*----------------------------------*\
  =========                 |
  \\      /  F ield         | OpenFOAM: The Open Source CFD Toolbox
   \\    /   O peration     | Website:  https://openfoam.org
    \\  /    A nd           | Version:  11
     \\/     M anipulation  |
\*---------------------------------------------------------------------------*/
FoamFile
{
    format      ascii;
    class       volScalarField;
    location    "1.34";
    object      epsilon;
}
// * * * * * * * * * * * * * * * * * * * * * * * * * * * * * * * * * * * * * //

dimensions      [0 2 -3 0 0 0 0];

internalField   nonuniform List<scalar> 
2880
(
1.99429
2.49428
3.03765
3.1348
2.891
2.74754
0.87533
1.05746
1.32872
1.46879
1.51243
1.69567
0.23489
0.801863
1.02806
1.14358
1.22618
1.41542
0.257641
0.763821
0.948152
1.05163
1.14487
1.31274
0.273242
0.797739
0.934934
1.03204
1.13043
1.28177
1.21041
0.879781
0.950342
1.04308
1.14597
1.28712
1.38616
0.941982
0.978667
1.0694
1.17674
1.31293
1.53945
0.989447
1.01071
1.10262
1.21443
1.34799
1.66841
1.02487
1.04246
1.13867
1.25446
1.38616
1.77152
1.05099
1.07285
1.17522
1.29418
1.42365
1.84841
1.0705
1.10199
1.21116
1.33216
1.45815
1.9001
1.08597
1.13041
1.24625
1.36789
1.48853
1.92661
1.09905
1.1587
1.28096
1.40159
1.51466
1.92003
1.10918
1.18773
1.31631
1.43422
1.53734
1.87786
1.11657
1.21873
1.35389
1.46756
1.55832
1.7998
1.12192
1.25345
1.39615
1.50444
1.58051
1.68681
1.12637
1.29442
1.44674
1.54923
1.60831
1.54143
1.13129
1.34549
1.5114
1.60826
1.64853
1.3698
1.13929
1.41291
1.59874
1.69223
1.71425
0.280983
1.1541
1.50724
1.72451
1.82216
1.82647
0.264489
1.18803
1.64967
1.92099
2.03873
2.02791
0.242001
1.28021
1.89483
2.26752
2.43461
2.41831
0.893223
1.54461
2.4446
3.03021
3.29519
3.3014
1.99425
2.72486
4.47531
5.72221
6.09144
6.17624
5.67724
4.61099
2.74891
1.64279
1.01359
0.652786
0.442613
0.317887
0.241536
0.192428
0.158893
0.13452
0.115761
0.100647
0.0880977
0.0775424
0.0687167
0.061551
0.0561124
0.0524902
0.0507787
0.051003
0.0529676
0.0575667
4.03615
4.5374
3.73005
2.39073
1.51107
0.988063
0.679184
0.491155
0.372807
0.295457
0.242666
0.2047
0.17587
0.152874
0.133814
0.117636
0.103808
0.0921359
0.0826694
0.0755989
0.0710754
0.0693619
0.070511
0.075107
2.60415
4.20343
4.12765
3.4778
2.40875
1.604
1.08406
0.769823
0.574369
0.450587
0.367968
0.309712
0.266229
0.231975
0.203746
0.179703
0.158831
0.140661
0.125121
0.112461
0.103024
0.097166
0.0961832
0.0999638
1.95887
3.35951
4.05245
3.97838
3.52075
2.68995
1.94376
1.37484
0.996905
0.753798
0.591681
0.48099
0.404145
0.348901
0.306258
0.271218
0.241083
0.214517
0.190998
0.170562
0.153676
0.140955
0.13417
0.136309
1.70247
2.66685
3.58026
3.99352
3.97232
3.69892
3.13151
2.4977
1.91827
1.4457
1.09388
0.854361
0.686397
0.565129
0.476512
0.411531
0.362038
0.321806
0.287393
0.257194
0.230776
0.208534
0.19168
0.189495
1.60189
2.27171
3.05039
3.68541
4.00419
4.05414
3.9137
3.58318
3.11617
2.61416
2.13125
1.69534
1.33533
1.05487
0.847362
0.695377
0.582188
0.497696
0.434069
0.383902
0.342616
0.307741
0.277453
0.265421
1.56994
2.06676
2.68609
3.29091
3.76674
4.04597
4.1555
4.10868
3.94346
3.63771
3.26174
2.84347
2.4154
2.00681
1.63686
1.32043
1.06536
0.867661
0.717627
0.605511
0.521246
0.457228
0.403806
0.372448
1.5699
1.96336
2.45898
2.9822
3.45763
3.8341
4.08945
4.22444
4.2367
4.165
3.99342
3.72986
3.40771
3.04363
2.6575
2.26999
1.90152
1.56872
1.28284
1.04867
0.864193
0.72392
0.615148
0.537551
1.58538
1.91084
2.31541
2.75593
3.18322
3.55953
3.86232
4.08269
4.21645
4.26644
4.2411
4.14998
3.97768
3.74385
3.45884
3.13393
2.78297
2.42265
2.06986
1.73954
1.44531
1.19505
0.992695
0.823811
1.60554
1.88097
2.21554
2.58191
2.94701
3.2841
3.5755
3.81157
3.98747
4.10193
4.15613
4.15118
4.09712
3.98226
3.81493
3.6057
3.35725
3.07405
2.76452
2.43919
2.11384
1.80207
1.52583
1.27179
1.62425
1.85841
2.13467
2.43436
2.73436
3.01576
3.2658
3.4769
3.6453
3.76978
3.8508
3.88947
3.88747
3.85014
3.76938
3.64644
3.48795
3.29772
3.08023
2.84161
2.58412
2.31225
2.0431
1.79318
1.63821
1.83493
2.05895
2.29726
2.5331
2.75304
2.94845
3.11422
3.2483
3.35056
3.42218
3.46467
3.48015
3.47096
3.4376
3.37773
3.29337
3.18407
3.04934
2.88974
2.71149
2.52417
2.34887
2.2037
1.64612
1.80651
1.98187
2.16321
2.33822
2.49767
2.63604
2.75088
2.84191
2.91035
2.95828
2.98689
2.99825
2.99592
2.97996
2.95099
2.90914
2.85402
2.78511
2.70247
2.60821
2.50847
2.41494
2.33559
1.64819
1.77222
1.90181
2.0311
2.15117
2.25613
2.34325
2.41253
2.4655
2.50458
2.53247
2.54959
2.55648
2.5569
2.551
2.53908
2.52066
2.49479
2.4614
2.42066
2.37428
2.3268
2.28205
2.21843
1.64579
1.73316
1.8203
1.90382
1.97741
2.03799
2.08557
2.12243
2.15189
2.17658
2.19942
2.22319
2.25035
2.27699
2.2989
2.3124
2.31666
2.3103
2.29256
2.2643
2.22689
2.1819
2.12837
2.05486
1.64132
1.69176
1.74071
1.78631
1.82419
1.85373
1.87736
1.89917
1.92416
1.95827
2.00547
2.06144
2.121
2.17683
2.22153
2.25303
2.27015
2.27504
2.26527
2.24357
2.21133
2.16882
2.1131
2.05276
1.63809
1.6514
1.66748
1.68449
1.69909
1.71258
1.72918
1.75571
1.79946
1.86259
1.9389
2.02278
2.10616
2.18098
2.24121
2.28272
2.29996
2.29398
2.27719
2.24824
2.20949
2.16091
2.10343
2.06634
1.64083
1.61618
1.60586
1.60486
1.60976
1.62306
1.65045
1.69897
1.77223
1.86977
1.98593
2.10752
2.21793
2.30209
2.34832
2.35117
2.32174
2.27428
2.20586
2.12408
2.03413
1.93924
1.84739
1.80737
1.65504
1.59134
1.56196
1.55494
1.56511
1.59526
1.65071
1.73893
1.86188
2.01342
2.17678
2.32669
2.43685
2.48701
2.46655
2.37562
2.25273
2.10463
1.94539
1.78535
1.6294
1.47792
1.33116
1.23631
1.68905
1.58375
1.54435
1.54427
1.57664
1.64187
1.74725
1.89666
2.08515
2.29442
2.49198
2.63946
2.70672
2.68143
2.52749
2.31629
2.07345
1.82621
1.5935
1.38525
1.20258
1.04203
0.902765
0.827265
1.75466
1.60132
1.56163
1.58384
1.65735
1.7823
1.96091
2.18809
2.44583
2.69746
2.89485
2.99291
2.97658
2.79562
2.51728
2.19109
1.86378
1.56759
1.31609
1.11085
0.946086
0.815961
0.715061
0.662855
1.86964
1.65703
1.6295
1.69656
1.83757
2.0463
2.31552
2.62556
2.93663
3.19218
3.33578
3.33234
3.14393
2.81319
2.41644
2.00981
1.64701
1.35144
1.12102
0.944919
0.81095
0.706221
0.626182
0.586338
2.05515
1.77127
1.7777
1.91672
2.15202
2.46592
2.83412
3.2117
3.53356
3.72834
3.74476
3.53847
3.16236
2.69191
2.19838
1.7564
1.40263
1.13712
0.940347
0.793714
0.683885
0.600443
0.541481
0.516858
2.32692
1.96923
2.04286
2.28322
2.63959
3.07091
3.52285
3.91856
4.17174
4.19994
3.97106
3.54182
2.98414
2.39436
1.86839
1.45364
1.15006
0.931992
0.772673
0.655002
0.565913
0.499545
0.456793
0.441778
1.76597
1.93625
2.93066
4.08648
5.25292
6.22959
0.831074
1.05902
1.65391
2.3703
3.18534
3.64916
0.227228
0.917557
1.41232
1.9624
2.5557
2.91699
0.252238
0.89324
1.33437
1.80216
2.29073
2.69913
0.269806
0.899458
1.29957
1.72451
2.18669
2.67733
1.18773
0.91894
1.27915
1.68374
2.15882
2.74905
1.25075
0.937281
1.26343
1.6608
2.16882
2.86987
1.33093
0.950228
1.24825
1.6452
2.19517
3.01367
1.39698
0.957455
1.23127
1.6303
2.22599
3.16576
1.44238
0.958916
1.21095
1.61146
2.25284
3.31846
1.4642
0.955194
1.1862
1.58531
2.26919
3.46839
1.46217
0.946076
1.15628
1.54952
2.27151
3.61439
1.43487
0.930792
1.12075
1.50254
2.25562
3.75465
1.38533
0.910064
1.07943
1.44369
2.21851
3.8844
1.32388
0.88427
1.03224
1.3733
2.15809
3.99562
1.25495
0.849102
0.979792
1.29293
2.07346
4.07969
1.19191
0.797636
0.922898
1.20509
1.96535
4.13133
1.18613
0.719993
0.864495
1.11307
1.83575
4.14616
0.274923
0.646707
0.810101
1.02193
1.68847
4.11979
0.263084
0.601052
0.767176
0.93978
1.53017
4.04629
0.245685
0.586334
0.748973
0.880784
1.3746
3.93865
0.222814
0.625118
0.779745
0.878416
1.25249
3.82331
0.826703
0.848774
0.965629
1.02274
1.24868
3.74803
1.86778
2.07431
2.16217
2.03868
1.89325
3.64586
2.55503
2.27194
2.4575
2.83484
3.32909
3.8629
4.34053
4.65568
4.68496
4.43176
3.93448
3.27324
2.57867
1.96819
1.49747
1.16166
0.926532
0.758132
0.633864
0.539451
0.467992
0.41696
0.386722
0.377727
2.6821
2.67286
3.0351
3.58361
4.20739
4.78046
5.1668
5.19812
4.91269
4.33455
3.55403
2.74819
2.05577
1.53581
1.17379
0.924287
0.74647
0.614376
0.513387
0.4366
0.380414
0.342804
0.322911
0.318782
2.83119
3.16594
3.76531
4.49543
5.19239
5.6769
5.73214
5.41562
4.74884
3.83531
2.91263
2.14106
1.57735
1.19266
0.929391
0.740836
0.599413
0.490851
0.408056
0.34704
0.304521
0.278102
0.26589
0.264886
3.05175
3.73959
4.607
5.4832
6.12821
6.26504
5.9391
5.19579
4.13875
3.09261
2.2413
1.63459
1.22604
0.94618
0.744111
0.591639
0.474597
0.385478
0.31953
0.272923
0.242163
0.224546
0.217799
0.218545
3.33589
4.37319
5.49737
6.41431
6.74738
6.46744
5.70079
4.49701
3.31702
2.37801
1.72152
1.28211
0.979371
0.759231
0.59293
0.465793
0.36945
0.298144
0.247376
0.213072
0.191723
0.180629
0.177602
0.179275
3.6655
5.04097
6.35457
7.10102
6.95917
6.27202
4.95073
3.62201
2.57597
1.85334
1.3699
1.03451
0.789727
0.605495
0.465817
0.36083
0.283456
0.228125
0.190247
0.165762
0.151444
0.144877
0.144147
0.146317
4.02477
5.71444
7.08542
7.36748
6.85924
5.55167
4.04499
2.86185
2.04761
1.50085
1.11928
0.840764
0.632631
0.476597
0.360674
0.275951
0.215455
0.173622
0.14599
0.128867
0.119521
0.115943
0.116434
0.118894
4.40248
6.3617
7.54926
7.37209
6.30929
4.63457
3.27371
2.32863
1.69076
1.24449
0.919733
0.679093
0.500879
0.370291
0.276034
0.209218
0.162926
0.131851
0.111953
0.100119
0.0941511
0.092451
0.0935263
0.096117
4.79349
6.95098
7.6919
7.07783
5.45981
3.86289
2.73035
1.96276
1.42617
1.03751
0.751936
0.542931
0.391966
0.284648
0.20955
0.15784
0.12294
0.100071
0.0857989
0.0776374
0.0738795
0.0732917
0.0746464
0.0771362
5.19833
7.44145
7.64061
6.53215
4.68462
3.29962
2.35084
1.68816
1.21032
0.861807
0.609394
0.429539
0.303722
0.217136
0.158322
0.118841
0.0927398
0.075933
0.0656427
0.0599552
0.0575816
0.0575872
0.0590202
0.0612727
5.62355
7.7674
7.43329
5.84221
4.11791
2.90876
2.06637
1.46247
1.02486
0.7106
0.489269
0.336749
0.233631
0.164861
0.119374
0.089462
0.069974
0.0575527
0.0500248
0.0459559
0.044396
0.0446222
0.0460085
0.0479951
6.07884
7.89313
7.14408
5.26326
3.70591
2.61257
1.83081
1.26617
0.862813
0.581177
0.389566
0.262178
0.178891
0.124917
0.0900083
0.0674047
0.0528013
0.0435127
0.0378712
0.0348212
0.0336758
0.0339166
0.0351173
0.0368306
6.56844
7.91189
6.80911
4.85919
3.41129
2.37347
1.62513
1.09182
0.721389
0.471749
0.308156
0.203214
0.13671
0.0946741
0.0679683
0.0508556
0.0398274
0.0327682
0.0284069
0.0259711
0.0249709
0.0250702
0.0259767
0.0274033
7.07176
7.88834
6.5105
4.58636
3.17795
2.16282
1.43872
0.936118
0.599095
0.380571
0.2427
0.157217
0.104534
0.071915
0.0514667
0.038441
0.0300253
0.0245628
0.0210792
0.0189987
0.0179735
0.0177937
0.0183116
0.0194008
7.54729
7.88051
6.30563
4.37648
2.97445
1.96921
1.26821
0.797906
0.494633
0.305665
0.190765
0.121716
0.0801677
0.0548582
0.0391357
0.0291415
0.0226448
0.018348
0.0154918
0.0136299
0.0124966
0.0119389
0.0119204
0.0125107
7.96922
7.93661
6.17159
4.20941
2.78908
1.78824
1.11243
0.676394
0.40653
0.244906
0.150001
0.0945322
0.0618076
0.042113
0.0299449
0.0222053
0.0171344
0.0137148
0.0113455
0.00966225
0.00843298
0.00749177
0.00671419
0.00631455
8.36123
8.10426
6.09938
4.06575
2.6119
1.61699
0.970609
0.570563
0.333038
0.196118
0.118251
0.0738162
0.0480078
0.0326066
0.0231172
0.0170685
0.0130763
0.0103427
0.00839033
0.00691892
0.00572383
0.00464958
0.003545
0.00190544
8.80675
8.37056
6.0824
3.93047
2.43727
1.45454
0.842379
0.479294
0.272327
0.157242
0.0936346
0.0580508
0.0376275
0.0255083
0.0180498
0.0132864
0.0101283
0.0079507
0.00638009
0.00518029
0.00418938
0.00328967
0.00238733
0.00123301
9.40182
8.75821
6.08345
3.78923
2.26205
1.30062
0.727217
0.40122
0.222535
0.126404
0.0745658
0.0460219
0.0297778
0.0201712
0.0142611
0.0104817
0.00797137
0.00623787
0.00498772
0.0040353
0.00325196
0.00254325
0.00184327
0.00102462
10.2431
9.26841
6.07254
3.63132
2.08452
1.15509
0.624384
0.33487
0.181903
0.101984
0.0597619
0.0367883
0.0237854
0.0161075
0.011382
0.00835682
0.00634545
0.00495571
0.00395355
0.00319051
0.00256349
0.00199979
0.00145864
0.000869834
11.4468
9.87216
6.01706
3.4471
1.90325
1.01768
0.533016
0.278794
0.148862
0.0826362
0.048216
0.029642
0.019159
0.0129691
0.00915558
0.00671183
0.00508612
0.00396291
0.00315358
0.00253833
0.00203456
0.00158717
0.00117196
0.00075002
13.1909
10.4287
5.88995
3.22748
1.71726
0.888287
0.452258
0.231647
0.122059
0.0672707
0.0391561
0.024061
0.0155469
0.0105141
0.00740976
0.00541928
0.00409558
0.00318239
0.00252633
0.00203014
0.00162754
0.00127649
0.000961568
0.00065847
15.7645
10.7713
5.6455
2.96422
1.5269
0.767192
0.381438
0.192144
0.100284
0.0550224
0.0319999
0.019664
0.0126982
0.00857353
0.00602673
0.00439419
0.00331044
0.00256541
0.0020332
0.00163415
0.0013146
0.00104183
0.000805158
0.000588177
19.7705
10.8459
5.21007
2.65576
1.33503
0.655346
0.319751
0.159122
0.0825655
0.0452258
0.0263124
0.0161726
0.0104328
0.0070274
0.00492383
0.00357731
0.00268648
0.00207752
0.00164617
0.00132659
0.00107486
0.000864956
0.00068879
0.00053439
2.70814
8.78173
11.4985
12.4275
10.9983
57.6949
1.05171
4.01258
5.51671
6.71629
9.27195
17.8974
1.5201
3.05009
4.03855
5.0537
6.84141
10.171
2.14444
2.72244
3.42127
4.28511
5.56805
7.22445
2.73755
2.59717
3.09316
3.82693
4.79171
5.74456
3.26925
2.54726
2.89579
3.51203
4.25247
4.83643
3.72091
2.52805
2.76357
3.27733
3.85086
4.21263
4.08362
2.51681
2.66627
3.09388
3.54044
3.75606
4.35508
2.50158
2.58829
2.94731
3.29651
3.41064
4.53715
2.47727
2.52242
2.82973
3.10486
3.14745
4.6343
2.44316
2.46599
2.7371
2.95679
2.94973
4.65097
2.40118
2.4188
2.66693
2.84821
2.80711
4.59889
2.35476
2.3816
2.61961
2.77722
2.71407
4.48338
2.30737
2.35616
2.5963
2.74434
2.67057
4.29633
2.2594
2.34411
2.59656
2.74724
2.67379
4.03656
2.21234
2.34699
2.62467
2.79171
2.73135
3.70627
2.16891
2.36903
2.68507
2.88474
2.85467
3.30969
2.1334
2.41571
2.78475
3.03901
3.06566
2.85334
2.11384
2.49651
2.93538
3.2768
3.40785
2.3477
2.12033
2.62963
3.16279
3.63367
3.97443
1.80922
2.17951
2.8545
3.52108
4.17861
4.986
1.26407
2.35498
3.27435
4.14325
5.05687
7.06341
0.914601
2.89892
4.26643
5.48646
6.59057
12.4368
2.03774
5.56825
7.99726
9.97019
9.8221
36.3482
23.2078
9.33716
4.53802
2.31431
1.14726
0.553682
0.266532
0.131657
0.0681645
0.0373597
0.0217673
0.013382
0.00861949
0.00578894
0.00404117
0.00292544
0.00219107
0.00169298
0.00134401
0.00108927
0.000892435
0.000732383
0.00060246
0.000493435
12.9886
7.04207
3.80268
1.97599
0.97196
0.463576
0.2213
0.10899
0.0564844
0.031032
0.0181194
0.0111402
0.00716145
0.00479375
0.00333384
0.00240565
0.00179885
0.00139129
0.00110953
0.000907405
0.000754561
0.000633577
0.000538653
0.000462367
8.90209
5.62029
3.19337
1.67165
0.815886
0.385945
0.183508
0.0904458
0.0470357
0.0259377
0.0151817
0.00933228
0.00598557
0.0039929
0.00276724
0.00199212
0.00148956
0.00115589
0.000928751
0.00076901
0.000651098
0.000560411
0.000491702
0.000438845
6.7947
4.6193
2.68626
1.40593
0.681271
0.320659
0.152414
0.0753906
0.039406
0.0218355
0.0128097
0.00787038
0.00503571
0.00334839
0.00231408
0.00166415
0.00124676
0.00097325
0.000790288
0.000664462
0.000574035
0.000506597
0.000457307
0.000421059
5.48575
3.84695
2.26341
1.17975
0.568208
0.266836
0.127141
0.0632397
0.0332554
0.0185237
0.0108895
0.00668618
0.00426803
0.00283017
0.00195249
0.00140498
0.00105707
0.000832376
0.000684965
0.000586079
0.000517079
0.000467286
0.000432222
0.000407641
4.58774
3.24772
1.91565
0.991427
0.475167
0.223112
0.106774
0.053467
0.0282983
0.0158453
0.0093322
0.00572598
0.00364775
0.00241415
0.00166478
0.001201
0.000909621
0.000724397
0.000605436
0.000527786
0.000475322
0.000438773
0.000414027
0.000397581
3.93187
2.78111
1.63255
0.83715
0.399701
0.18794
0.090445
0.0456184
0.0243003
0.0136753
0.00806755
0.00494716
0.00314702
0.00208089
0.00143661
0.00104115
0.000795664
0.000642217
0.000545889
0.000484827
0.000444981
0.000418266
0.000400949
0.000390134
3.43886
2.41408
1.40363
0.712272
0.339101
0.159823
0.0773857
0.0393148
0.0210716
0.0119143
0.00703963
0.00431564
0.0027434
0.00181462
0.00125634
0.000916532
0.000708185
0.000580214
0.000501764
0.00045352
0.000423179
0.000403693
0.000391698
0.000384742
3.06305
2.12461
1.21969
0.612138
0.290768
0.137422
0.0669474
0.0342468
0.0184603
0.0104835
0.00620391
0.00380407
0.00241878
0.0016026
0.00111458
0.000819999
0.000641612
0.000533965
0.000469513
0.000431042
0.000407748
0.000393513
0.000385318
0.000380972
2.77575
1.89696
1.07283
0.532532
0.252407
0.119603
0.0585982
0.0301657
0.0163458
0.00932004
0.00552483
0.00339049
0.00215858
0.00143459
0.00100382
0.000745866
0.000591537
0.000499989
0.00044638
0.000415243
0.000397067
0.000386567
0.000381089
0.000378426
2.55886
1.71967
0.956339
0.469954
0.222085
0.105435
0.0519107
0.0268734
0.0146331
0.00837429
0.00497403
0.00305733
0.00195115
0.00130244
0.000918138
0.000689686
0.000554529
0.000475595
0.000430255
0.000404518
0.000389967
0.000382131
0.000378401
0.000376752
2.40075
1.58446
0.865169
0.421059
0.198192
0.0941732
0.0465464
0.024212
0.0132476
0.00760652
0.00452885
0.00279057
0.00178724
0.00119976
0.000852955
0.000648065
0.000528007
0.000458786
0.000419605
0.00039773
0.000385663
0.000379558
0.000376823
0.00037575
2.2943
1.48543
0.795264
0.383156
0.179434
0.0852275
0.042242
0.0220608
0.0121236
0.0069847
0.0041711
0.00257897
0.0016595
0.00112153
0.00080472
0.000618414
0.000510026
0.000448077
0.000413294
0.000394005
0.000383534
0.000378372
0.000376121
0.000375272
2.23619
1.41856
0.743433
0.354244
0.164806
0.078135
0.0387881
0.0203222
0.0112127
0.00648335
0.00388612
0.00241346
0.00156202
0.00106376
0.000770621
0.000598688
0.000499058
0.000442322
0.000410491
0.000392805
0.000383132
0.000378248
0.000376036
0.00037517
2.22657
1.38159
0.707357
0.332817
0.153525
0.0725297
0.0360181
0.018918
0.0104765
0.00608186
0.00366194
0.00228667
0.00149006
0.00102325
0.00074844
0.000587284
0.000493909
0.000440626
0.000410489
0.000393506
0.000383991
0.000378899
0.000376396
0.000375252
2.26844
1.37383
0.685586
0.317749
0.144975
0.0681177
0.0337967
0.0177845
0.00988358
0.00576328
0.00348876
0.00219264
0.00143982
0.000997509
0.000736491
0.000583036
0.000493712
0.000442291
0.000412887
0.000395907
0.000386044
0.000380371
0.000377207
0.000375485
2.37095
1.39611
0.677697
0.308211
0.13865
0.0646546
0.0320111
0.0168683
0.00940763
0.00551342
0.00335841
0.00212644
0.00140825
0.000984596
0.000733496
0.000584882
0.000497711
0.000447066
0.000417433
0.000399811
0.000389114
0.000382519
0.000378433
0.000375882
2.5499
1.45125
0.683906
0.303678
0.134135
0.0619247
0.0305619
0.0161228
0.00902576
0.00532011
0.00326405
0.00208407
0.00139292
0.000982986
0.000738198
0.000592239
0.000505878
0.000454694
0.000424029
0.000405193
0.000393221
0.000385342
0.000380043
0.000376437
2.83195
1.54549
0.703507
0.303398
0.131124
0.0597734
0.0293667
0.0155059
0.00871726
0.00517261
0.00319978
0.00206213
0.00139181
0.000991265
0.000750183
0.000605193
0.000517898
0.000465129
0.000432689
0.000412095
0.000398421
0.000388903
0.000382107
0.000377207
3.26064
1.68731
0.736328
0.306658
0.129165
0.0580379
0.0283658
0.0149914
0.00846797
0.00506217
0.00316055
0.00205779
0.00140326
0.00100896
0.00076947
0.000623303
0.000533776
0.000478454
0.000443525
0.000420634
0.000404829
0.000393323
0.000384742
0.000378288
3.90492
1.88732
0.781722
0.312411
0.127754
0.0565119
0.0274807
0.0145472
0.00826389
0.00498235
0.00314261
0.00206886
0.00142652
0.00103578
0.00079551
0.000646615
0.000553669
0.00049488
0.000456758
0.000431018
0.000412638
0.000398774
0.000388106
0.000379799
4.86635
2.15701
0.836582
0.318771
0.12626
0.0549923
0.0266331
0.0141392
0.00808951
0.00492482
0.00314145
0.00209307
0.00146016
0.00107086
0.000828165
0.000675256
0.00057784
0.000514728
0.000472713
0.000443549
0.000422109
0.000405482
0.000392386
0.000381883
6.32947
2.48704
0.890095
0.32223
0.123916
0.0532809
0.0257586
0.013741
0.00793242
0.00488306
0.00315366
0.00212852
0.00150319
0.00111378
0.00086742
0.000709425
0.000606616
0.000538386
0.000491788
0.0004586
0.000433577
0.000413735
0.000397809
0.000384722
8.95788
2.77362
0.914134
0.318315
0.119985
0.0512228
0.0248107
0.0133336
0.0077835
0.00485234
0.00317668
0.00217377
0.00155491
0.00116434
0.000913338
0.000749374
0.000640368
0.000566288
0.000514443
0.000476633
0.000447482
0.000423898
0.000404502
0.000388439
2.74912
2.46489
2.54987
2.42952
3.12623
34.7003
0.990553
1.20693
1.71646
2.50387
7.14574
17.3954
0.257522
1.1008
1.97336
3.56207
8.15255
11.2638
1.18853
1.27496
2.35675
4.44517
7.54754
8.1834
1.38609
1.49644
2.68898
4.75434
6.5319
6.21114
1.68118
1.68724
2.92051
4.71322
5.67759
4.84923
1.92517
1.84958
3.06897
4.4944
4.96608
3.88331
2.14062
1.98461
3.13792
4.20548
4.37679
3.18726
2.32347
2.09634
3.14479
3.93445
3.89117
2.68214
2.46622
2.18782
3.11612
3.70424
3.49262
2.31591
2.56585
2.26088
3.07288
3.51185
3.1758
2.0537
2.61452
2.31506
3.02735
3.35817
2.93477
1.87227
2.60943
2.34693
2.98706
3.24326
2.76452
1.75725
2.55125
2.35439
2.95383
3.16688
2.66172
1.70231
2.44663
2.33815
2.9258
3.12591
2.63407
1.70273
2.30489
2.29764
2.8999
3.11518
2.65884
1.7611
2.13469
2.23902
2.8746
3.12871
2.75617
1.89691
1.94234
2.17055
2.85226
3.17416
2.91149
2.12737
1.72757
2.10361
2.84324
3.25886
3.1195
2.46659
1.48748
2.05614
2.86229
3.38469
3.3863
2.92633
1.21635
2.05705
2.94196
3.56562
3.74623
3.48167
0.262049
2.16736
3.18008
3.87875
4.24646
4.29835
0.987284
2.69328
3.92876
4.63686
5.09179
6.11883
2.51511
5.64207
7.67722
7.85664
7.72157
6.21007
7.82186
2.63287
0.880142
0.304543
0.114144
0.0487725
0.0237743
0.0129073
0.00763763
0.00482988
0.00320892
0.00222801
0.00161503
0.00122258
0.000966196
0.000795531
0.000679621
0.00059901
0.000541259
0.000498188
0.000464269
0.000436246
0.000412572
0.000393074
6.08924
2.30682
0.809905
0.283193
0.106625
0.0458975
0.0226343
0.0124624
0.00749433
0.00481531
0.0032502
0.00229134
0.00168389
0.00128903
0.00102668
0.000848686
0.000725223
0.0006374
0.000573027
0.000523941
0.000484444
0.000451102
0.000422295
0.000398712
4.61816
1.87075
0.704692
0.254091
0.0973543
0.0426379
0.0214118
0.0120077
0.00735784
0.00481037
0.00330186
0.00236489
0.00176258
0.00136484
0.00109598
0.000910078
0.000778417
0.000682655
0.000610835
0.000554814
0.000508735
0.000469073
0.000434394
0.0004057
3.55699
1.50268
0.587543
0.219147
0.0868264
0.0391539
0.0201633
0.0115609
0.00723661
0.00481952
0.00336686
0.00245095
0.00185304
0.00145177
0.00117579
0.000981335
0.000840773
0.000736266
0.000656073
0.000592075
0.000538302
0.000491242
0.000449821
0.000414576
2.79341
1.21004
0.486023
0.18732
0.0768095
0.0357762
0.0189639
0.0111528
0.00714268
0.00485004
0.0034497
0.00255283
0.00195802
0.00155223
0.00126827
0.00106448
0.000914194
0.000800046
0.000710473
0.000637374
0.000574675
0.0005189
0.000469342
0.000425731
2.23826
0.983135
0.402883
0.160175
0.068069
0.0327878
0.0178915
0.010816
0.00708832
0.00490951
0.00355602
0.00267502
0.00208121
0.00166939
0.00137626
0.00116207
0.00100107
0.000876261
0.000776194
0.000692736
0.000619651
0.000553467
0.000493897
0.000439582
1.8297
0.809461
0.336925
0.137858
0.0606997
0.030248
0.0170077
0.010574
0.00708262
0.00500651
0.00369293
0.00282335
0.00222753
0.00180749
0.00150348
0.00127749
0.00110452
0.000967831
0.000855997
0.000760735
0.000675529
0.000596804
0.000524796
0.000456747
1.52651
0.677569
0.285537
0.11997
0.0546702
0.0281758
0.0163252
0.0104394
0.00714636
0.00515347
0.00386994
0.00300567
0.00240364
0.00197227
0.00165498
0.00141522
0.00122862
0.00107854
0.000953415
0.000844661
0.00074528
0.000651415
0.000563879
0.00047811
1.30082
0.578146
0.2461
0.105965
0.0499
0.0265782
0.015862
0.0104132
0.00729372
0.00536478
0.00409935
0.00323246
0.00261852
0.00217151
0.00183755
0.00158131
0.00137879
0.00121333
0.00107302
0.000948752
0.000832775
0.000720633
0.000613666
0.000504873
1.13375
0.504105
0.216434
0.095329
0.0463116
0.0254734
0.0156833
0.0105428
0.00754843
0.00565966
0.00439759
0.00351785
0.0028844
0.00241586
0.00206054
0.001784
0.00156242
0.00137886
0.00122087
0.00107858
0.000943107
0.000808933
0.000677621
0.000538639
1.01246
0.450298
0.194853
0.0876526
0.0438558
0.0248765
0.0157599
0.010858
0.00794023
0.00606377
0.00478682
0.00388108
0.00321809
0.00272008
0.00233698
0.00203487
0.00178983
0.0015844
0.00140537
0.00124177
0.00108324
0.000922509
0.000760645
0.000581501
0.928493
0.413247
0.180189
0.0826785
0.0425313
0.0248484
0.0161735
0.011405
0.00850939
0.00661197
0.00529731
0.00434865
0.00364293
0.00310488
0.00268539
0.00235062
0.00207617
0.00184376
0.00163908
0.00144976
0.00126355
0.00107074
0.000870408
0.000636326
0.876793
0.390783
0.171897
0.080404
0.042443
0.0254764
0.0170002
0.0122497
0.00931196
0.0073525
0.00597105
0.00495745
0.00419168
0.00359969
0.00313259
0.00275603
0.00244468
0.00217896
0.00194296
0.00172234
0.00150248
0.00127068
0.00102199
0.000708679
0.8576
0.383144
0.170252
0.0811053
0.0437864
0.0269114
0.0183569
0.013487
0.0104273
0.00835313
0.00686689
0.0057593
0.00491058
0.00424651
0.00371754
0.00328826
0.00293187
0.00262699
0.00235544
0.00210012
0.00184282
0.00156603
0.00125797
0.000823857
0.864971
0.390328
0.175698
0.0851537
0.0468726
0.0293836
0.0204195
0.0152558
0.0119696
0.00971062
0.00806842
0.00682751
0.00586499
0.00510475
0.00449576
0.00400119
0.0035927
0.00324734
0.00294542
0.00266838
0.00239638
0.00210663
0.00174864
0.00116528
0.911807
0.415984
0.189887
0.09349
0.0522709
0.0332701
0.0234589
0.0177643
0.0141071
0.0115657
0.00969611
0.00826689
0.00714729
0.00625714
0.00554302
0.00496656
0.00449866
0.00411688
0.00380457
0.00355102
0.00335117
0.00320939
0.00315968
0.0033765
1.00719
0.466378
0.216152
0.107873
0.0609751
0.0391917
0.0279025
0.0213312
0.0170926
0.0141272
0.011927
0.0102297
0.00888971
0.0078194
0.00696149
0.00627587
0.00573351
0.00531444
0.0050079
0.00481269
0.00473608
0.00479878
0.00507046
0.00566011
1.1703
0.552958
0.260427
0.131409
0.0746989
0.0481829
0.0344397
0.0264585
0.0213166
0.0177132
0.0150275
0.0129431
0.0112875
0.00996
0.00889699
0.00805602
0.00740888
0.00693963
0.00664483
0.00653255
0.00661058
0.00690127
0.00748903
0.00839106
1.42705
0.6943
0.33319
0.169631
0.0964507
0.0620127
0.0442164
0.0339584
0.027398
0.0228205
0.0194102
0.016756
0.0146385
0.012934
0.0115678
0.0104935
0.00968367
0.00912695
0.00882718
0.0088005
0.00903435
0.00957999
0.0104955
0.0117352
1.80486
0.915451
0.45113
0.23212
0.13155
0.0837741
0.0591892
0.045184
0.0363466
0.0302467
0.0257298
0.0222187
0.0194109
0.017141
0.0153145
0.0138772
0.012801
0.0120789
0.0117214
0.01175
0.0121228
0.012927
0.0141931
0.0158258
2.35101
1.24776
0.637607
0.333984
0.188998
0.118843
0.0827487
0.0624402
0.0498485
0.0413023
0.0350507
0.0302205
0.026359
0.0232247
0.0206859
0.0186719
0.017151
0.0161194
0.0155926
0.0156024
0.0160652
0.0171023
0.0187444
0.0208466
3.1166
1.72116
0.923217
0.499603
0.284791
0.176952
0.120943
0.0897428
0.0707767
0.0581807
0.0491329
0.0422222
0.0367203
0.0322429
0.0285862
0.0256465
0.0233805
0.0217863
0.0208845
0.020716
0.0211761
0.0223638
0.0243875
0.0270498
4.25649
2.33937
1.29702
0.734389
0.431234
0.26986
0.182723
0.13355
0.103876
0.084517
0.0708846
0.060633
0.0525372
0.0459486
0.0405251
0.0360947
0.0325867
0.0299967
0.0283531
0.0277044
0.0279901
0.0291454
0.0314843
0.0348008
6.46523
3.79561
1.9929
1.12521
0.668367
0.420287
0.282982
0.204347
0.156846
0.126216
0.105028
0.0893673
0.077142
0.0672249
0.0590125
0.0521972
0.0466462
0.04234
0.0393225
0.0376468
0.0373767
0.0382447
0.0406257
0.0446718
)
;

boundaryField
{
    rotor
    {
        type            epsilonWallFunction;
        value           nonuniform List<scalar> 
144
(
1.99429
2.49428
3.03765
3.1348
2.891
2.74754
1.99429
0.87533
0.23489
0.257641
0.273242
1.21041
1.38616
1.53945
1.66841
1.77152
1.84841
1.9001
1.92661
1.92003
1.87786
1.7998
1.68681
1.54143
1.3698
0.280983
0.264489
0.242001
0.893223
1.99425
1.99425
2.72486
4.47531
5.72221
6.09144
6.17624
1.76597
1.93625
2.93066
4.08648
5.25292
6.22959
1.76597
0.831074
0.227228
0.252238
0.269806
1.18773
1.25075
1.33093
1.39698
1.44238
1.4642
1.46217
1.43487
1.38533
1.32388
1.25495
1.19191
1.18613
0.274923
0.263084
0.245685
0.222814
0.826703
1.86778
1.86778
2.07431
2.16217
2.03868
1.89325
3.64586
2.70814
8.78173
11.4985
12.4275
10.9983
57.6949
2.70814
1.05171
1.5201
2.14444
2.73755
3.26925
3.72091
4.08362
4.35508
4.53715
4.6343
4.65097
4.59889
4.48338
4.29633
4.03656
3.70627
3.30969
2.85334
2.3477
1.80922
1.26407
0.914601
2.03774
2.03774
5.56825
7.99726
9.97019
9.8221
36.3482
2.74912
2.46489
2.54987
2.42952
3.12623
34.7003
2.74912
0.990553
0.257522
1.18853
1.38609
1.68118
1.92517
2.14062
2.32347
2.46622
2.56585
2.61452
2.60943
2.55125
2.44663
2.30489
2.13469
1.94234
1.72757
1.48748
1.21635
0.262049
0.987284
2.51511
2.51511
5.64207
7.67722
7.85664
7.72157
6.21007
)
;
    }
    freestream
    {
        type            inletOutlet;
        inletValue      uniform 0.000375;
        value           nonuniform List<scalar> 
96
(
0.0575667
0.075107
0.0999638
0.136309
0.189495
0.265421
0.372448
0.537551
0.823811
1.27179
1.79318
2.2037
2.33559
2.21843
2.05486
2.05276
2.06634
1.80737
1.23631
0.827265
0.662855
0.586338
0.516858
0.441778
0.377727
0.318782
0.264886
0.218545
0.179275
0.146317
0.118894
0.096117
0.0771362
0.0612727
0.0479951
0.0368306
0.0274033
0.0194008
0.0125107
0.00631455
0.000375
0.000375
0.000375
0.000375
0.000375
0.000375
0.000375
0.000375
0.000375
0.000375
0.000375
0.000375
0.000375
0.000375
0.000375
0.000375
0.000375
0.000375
0.000375
0.000375
0.000375
0.000375
0.000375
0.000375
0.000375
0.000375
0.000375
0.000375
0.000375
0.000375
0.000375
0.000375
0.000375
0.000375
0.000375
0.000375
0.000375
0.000375
0.000375
0.000375
0.000375
0.000375
0.000375
0.000375
0.000375
0.000375
0.000375
0.0033765
0.00566011
0.00839106
0.0117352
0.0158258
0.0208466
0.0270498
0.0348008
0.0446718
)
;
    }
    frontAndBack
    {
        type            empty;
    }
}


// ************************************************************************* //
