/*--------------------------------*- C++ -*----------------------------------*\
  =========                 |
  \\      /  F ield         | OpenFOAM: The Open Source CFD Toolbox
   \\    /   O peration     | Website:  https://openfoam.org
    \\  /    A nd           | Version:  11
     \\/     M anipulation  |
\*---------------------------------------------------------------------------*/
FoamFile
{
    format      ascii;
    class       volScalarField;
    location    "1.34";
    object      nut;
}
// * * * * * * * * * * * * * * * * * * * * * * * * * * * * * * * * * * * * * //

dimensions      [0 2 -1 0 0 0 0];

internalField   nonuniform List<scalar> 
2880
(
8.26218e-07
3.86551e-06
1.27264e-05
2.91462e-05
5.22904e-05
8.78522e-05
2.91988e-05
6.65154e-05
0.000124589
0.000186258
0.000249844
0.000297916
0.000166745
0.000149146
0.000256288
0.00035954
0.000452115
0.000498179
0.000182892
0.000212552
0.000365287
0.000502421
0.000615849
0.000673619
0.000193965
0.000256022
0.000452424
0.000616999
0.000747793
0.000822858
4.76209e-05
0.000282332
0.000522136
0.000709448
0.000855139
0.000947962
4.98212e-05
0.000310953
0.000578328
0.000784083
0.000942914
0.00105168
5.15916e-05
0.000338996
0.000624464
0.000844528
0.00101507
0.00113827
5.29907e-05
0.00036497
0.000662078
0.000892709
0.00107392
0.00121
5.40575e-05
0.000387631
0.000691372
0.000929786
0.00112073
0.00126824
5.48256e-05
0.000405756
0.00071202
0.00095627
0.00115605
0.00131378
5.53293e-05
0.000418052
0.000723539
0.000972174
0.00118
0.00134702
5.55816e-05
0.000423561
0.000725476
0.000977071
0.00119228
0.001368
5.55155e-05
0.000422335
0.00071728
0.000970265
0.00119225
0.00137649
5.51037e-05
0.00041449
0.000698312
0.000950759
0.00117889
0.00137183
5.43275e-05
0.0003994
0.000667859
0.00091744
0.00115066
0.0013529
5.31665e-05
0.000376484
0.000625179
0.000868798
0.00110555
0.00131788
5.16023e-05
0.000345208
0.000569589
0.000803153
0.00104105
0.00126393
4.96645e-05
0.000304918
0.000500586
0.000719097
0.000953744
0.00118488
0.000201253
0.00025517
0.00041818
0.000615272
0.000838655
0.00107356
0.000187672
0.00019486
0.000323061
0.000490881
0.00069154
0.000921202
0.000171634
0.000125998
0.000216914
0.00034697
0.000511501
0.000719504
2.97761e-05
5.31418e-05
0.000104901
0.000190206
0.000305891
0.000467048
8.2562e-07
4.22284e-06
1.87186e-05
5.3089e-05
0.00010998
0.000197816
0.000223012
0.000303734
0.000442942
0.000550269
0.000660063
0.000783745
0.000931164
0.00110125
0.00128406
0.00146734
0.0016427
0.00180694
0.00196133
0.00211043
0.00226144
0.00242404
0.00261049
0.00283452
0.00310701
0.00339611
0.00370911
0.00402154
0.00432005
0.00449687
0.000304139
0.000341213
0.000380607
0.000463228
0.000549729
0.000654422
0.000776179
0.000915008
0.00106692
0.00122529
0.00138263
0.00153342
0.00167589
0.00181167
0.00194513
0.00208333
0.00223629
0.00241728
0.00264178
0.00290787
0.00319234
0.00349423
0.00378751
0.00401379
0.000465721
0.000443992
0.000454685
0.000470137
0.00050205
0.000561803
0.000651105
0.000757915
0.000885844
0.00102179
0.00115869
0.00129232
0.00142103
0.00154425
0.00166334
0.00178206
0.00190692
0.00204779
0.00221846
0.00243445
0.00268548
0.00295562
0.00322128
0.00347564
0.000658935
0.00059267
0.000592421
0.000593151
0.000588801
0.000591844
0.000610933
0.000664726
0.00074631
0.000842196
0.000951782
0.0010732
0.00119624
0.00131112
0.0014195
0.00152418
0.00162889
0.00173961
0.00186577
0.00202087
0.00222106
0.00245241
0.0026918
0.00292011
0.000836211
0.000778789
0.000757544
0.0007675
0.000765936
0.000757683
0.000746366
0.000742969
0.000751439
0.000781947
0.000843587
0.00091809
0.0010026
0.0010963
0.0011981
0.00129932
0.00139496
0.00148893
0.00158689
0.0016975
0.00183382
0.00201656
0.00223122
0.0024106
0.000989127
0.000967327
0.000953871
0.000957995
0.000975282
0.000980274
0.000976726
0.00096707
0.000955307
0.000944835
0.000936041
0.00094058
0.000961571
0.00100165
0.00105762
0.0011235
0.00119884
0.00128118
0.00136447
0.00145095
0.00154702
0.00166479
0.00184174
0.00199151
0.00111963
0.00113678
0.00114523
0.0011633
0.00118692
0.00121282
0.00122869
0.00123181
0.00122876
0.001218
0.00119894
0.00117568
0.00115172
0.00113129
0.00111811
0.00111888
0.0011361
0.00116836
0.00121535
0.00127385
0.00134195
0.00141936
0.00153045
0.00166966
0.00123026
0.00128007
0.00131417
0.00135028
0.00138952
0.00142762
0.00146074
0.00148385
0.00149639
0.00149591
0.00148789
0.00146751
0.00143779
0.00140073
0.00135935
0.00131768
0.00128
0.00125085
0.00123466
0.00123445
0.00125176
0.00128496
0.00133502
0.00144252
0.00132156
0.00139723
0.00145365
0.00150655
0.00155931
0.00161017
0.00165614
0.00169351
0.00172027
0.00173582
0.00173807
0.0017304
0.00170958
0.00167598
0.00163319
0.00158343
0.00152885
0.00147218
0.00141721
0.00136835
0.00133024
0.00130689
0.00129636
0.00134534
0.00139564
0.00149075
0.00156331
0.00162796
0.00169044
0.00174973
0.00180326
0.00184829
0.00188297
0.00190651
0.00191854
0.00191988
0.00191245
0.00189449
0.00186437
0.0018229
0.00177128
0.00171101
0.00164576
0.00157926
0.00151448
0.00145635
0.00140501
0.00140244
0.00145405
0.00156303
0.00164556
0.00171713
0.00178385
0.0018463
0.00190298
0.00195195
0.00199177
0.00202153
0.00204061
0.00204854
0.0020455
0.00203174
0.00200724
0.00197669
0.00194055
0.00189953
0.00185059
0.00179167
0.00172357
0.00165145
0.00158689
0.0015656
0.00149792
0.0016163
0.00170391
0.00177698
0.00184285
0.00190343
0.0019583
0.00200637
0.00204671
0.00207867
0.00210186
0.00211619
0.00212165
0.00211824
0.00210606
0.00208539
0.00205632
0.00201967
0.00197862
0.00193674
0.00189717
0.00185669
0.00181478
0.00179316
0.00152808
0.00165227
0.00174126
0.00181149
0.00187199
0.00192611
0.00197458
0.00201727
0.00205394
0.00208452
0.00210896
0.0021281
0.00214136
0.00214832
0.0021491
0.00214335
0.00213103
0.00211246
0.00208806
0.0020587
0.00202651
0.00199981
0.00198696
0.00198515
0.00154517
0.00167345
0.00176053
0.00182441
0.00187566
0.00191909
0.00195662
0.00198908
0.00201713
0.00204155
0.00206287
0.00208296
0.00210287
0.00212008
0.00213398
0.00214476
0.00215128
0.0021537
0.00215163
0.00214517
0.00213515
0.00212313
0.00211116
0.00210625
0.00154945
0.00168097
0.00176433
0.00181929
0.00185802
0.00188676
0.00190846
0.00192485
0.00193745
0.00194845
0.00195891
0.00196888
0.00197746
0.0019867
0.00199826
0.00201341
0.00203111
0.00205066
0.00207152
0.00209132
0.00210827
0.00212196
0.00213191
0.00213384
0.00154099
0.00167621
0.00175524
0.0017997
0.00182339
0.00183388
0.00183481
0.00182862
0.00181701
0.00180048
0.00177979
0.00176214
0.00175332
0.0017554
0.00176847
0.00178985
0.00181868
0.00185149
0.00188886
0.00192734
0.00196444
0.0019979
0.00202503
0.00204007
0.00151935
0.00166034
0.0017358
0.00176951
0.00177671
0.00176678
0.00174327
0.00170764
0.00166163
0.00161147
0.00156928
0.00153947
0.00152244
0.00152095
0.0015346
0.00155142
0.00157844
0.00161535
0.00165357
0.0016945
0.00173596
0.00177555
0.00181594
0.00185177
0.00148322
0.00163429
0.0017077
0.00173191
0.0017253
0.00169496
0.00164707
0.00158791
0.00152499
0.00146813
0.00141996
0.00138068
0.00134922
0.00132452
0.00131641
0.00132439
0.00134018
0.0013588
0.00138487
0.00141587
0.00144819
0.00147763
0.00150813
0.00154247
0.00143107
0.00159805
0.00167389
0.00169307
0.00167484
0.00162858
0.00156557
0.00149277
0.00142
0.0013548
0.00130085
0.00125867
0.00122621
0.00120123
0.00117519
0.00116464
0.00116155
0.00116929
0.00118724
0.00121317
0.00124041
0.0012571
0.00127799
0.00134912
0.00136039
0.00155185
0.00163643
0.0016556
0.00163111
0.00157748
0.00150559
0.00142865
0.00135689
0.00129642
0.00124824
0.00120976
0.00117696
0.00114821
0.00112024
0.0010984
0.00109026
0.00109832
0.00112388
0.00116653
0.00122164
0.00129865
0.00141476
0.00155086
0.00126889
0.00149731
0.00159834
0.00162318
0.001597
0.00154063
0.00147132
0.00140176
0.0013406
0.00129074
0.00125024
0.00121546
0.00118412
0.00114237
0.0011094
0.00108715
0.00108284
0.00110177
0.00114641
0.00121694
0.00131608
0.0014424
0.00161497
0.00178333
0.00115579
0.00143565
0.00155821
0.0015876
0.00156459
0.00151484
0.00145604
0.00139958
0.00135057
0.00130862
0.00127025
0.00123296
0.00118157
0.0011402
0.00110431
0.00108539
0.00109218
0.00112945
0.00119753
0.00129471
0.00142349
0.00159597
0.00180979
0.00200289
0.00102873
0.00136956
0.00151192
0.00154847
0.00153208
0.00149264
0.00144691
0.00140269
0.00136145
0.00132166
0.00127674
0.00122548
0.00117692
0.0011305
0.00110095
0.00109935
0.00113362
0.00120548
0.00131275
0.001455
0.00163748
0.00186857
0.00211892
0.00235539
0.00091547
0.00131205
0.00146461
0.00150569
0.00149601
0.00146745
0.00143272
0.00139566
0.00135617
0.00130816
0.00126085
0.00120834
0.00115579
0.00112009
0.00111461
0.00114906
0.00122595
0.00134224
0.00149693
0.00169644
0.00195171
0.00224429
0.00256381
0.00283548
7.31406e-07
3.01047e-06
1.23349e-05
3.81656e-05
9.52785e-05
0.000199932
2.77157e-05
5.04661e-05
9.52575e-05
0.000161689
0.000258184
0.000425425
0.000161283
0.000115542
0.000192473
0.000293058
0.000424509
0.000629898
0.000179102
0.000172005
0.000275733
0.000403982
0.000563379
0.000772709
0.000192187
0.000218785
0.000344862
0.000492564
0.00066482
0.000860772
4.72402e-05
0.00025618
0.000401046
0.000560029
0.000732546
0.000907046
4.80022e-05
0.000286209
0.000445362
0.000608542
0.000772674
0.000922763
4.91781e-05
0.000308898
0.000478808
0.000640625
0.000791402
0.000917281
4.99878e-05
0.000325089
0.000502373
0.000658778
0.000793368
0.000896933
5.05249e-05
0.000335369
0.000517057
0.00066544
0.000782549
0.000865794
5.07781e-05
0.000340036
0.00052425
0.000662535
0.000762034
0.000826706
5.07539e-05
0.000339727
0.000524172
0.000651936
0.000734011
0.000781778
5.04347e-05
0.000334768
0.000518039
0.000635242
0.000700746
0.000733148
4.9846e-05
0.000325199
0.000506626
0.00061377
0.000664101
0.000683481
4.90976e-05
0.000310775
0.000490646
0.000588478
0.000625602
0.000635841
4.8225e-05
0.000293301
0.000470471
0.000559829
0.000586224
0.000592663
4.73536e-05
0.000275858
0.000446433
0.000527888
0.000546317
0.000554102
4.69109e-05
0.000264289
0.00041809
0.000492351
0.000505833
0.000518218
0.000194923
0.000251959
0.000383975
0.000452003
0.000463746
0.000481761
0.000186736
0.000228443
0.000341096
0.00040385
0.000417182
0.000440314
0.000174406
0.000191003
0.000283709
0.000342036
0.000361081
0.000387878
0.000158178
0.000135766
0.000206001
0.000256406
0.000286087
0.000323425
2.75791e-05
6.05337e-05
0.000103073
0.000141366
0.000174934
0.000240547
7.74093e-07
3.22009e-06
9.07457e-06
1.89683e-05
3.43119e-05
0.000117223
0.000896201
0.00128006
0.00142182
0.0014608
0.00145701
0.00143674
0.00140763
0.00137126
0.0013253
0.00128242
0.00122658
0.00117229
0.00113512
0.00113008
0.0011674
0.00124805
0.00136701
0.00152218
0.00172003
0.0019769
0.00229391
0.00265134
0.00303302
0.00332316
0.000959859
0.00126837
0.00138444
0.00141734
0.00141659
0.00139996
0.00136836
0.00132691
0.00129132
0.00123372
0.00118085
0.00114593
0.00114502
0.00118753
0.00127177
0.00139043
0.00154111
0.00173173
0.00197992
0.00230782
0.00269029
0.00312137
0.00355115
0.00384994
0.00102722
0.00125974
0.00134886
0.00137532
0.00137412
0.00135096
0.00131525
0.00128742
0.00123385
0.0011835
0.00115327
0.00115878
0.00120711
0.00129353
0.00140926
0.00155231
0.00173174
0.00196652
0.0022801
0.00268548
0.00313889
0.0036375
0.00409367
0.00439031
0.00107032
0.00124416
0.00131196
0.00133147
0.00132308
0.0012924
0.00127453
0.0012265
0.00118078
0.00115736
0.00117036
0.00122388
0.00131066
0.00142187
0.00155634
0.00172278
0.00193899
0.00222917
0.0026167
0.00308948
0.00361122
0.00415741
0.00462231
0.0049138
0.00108722
0.00121863
0.00127028
0.00128245
0.00126286
0.00125224
0.00121103
0.00117293
0.00115775
0.00117819
0.00123564
0.00132149
0.00142782
0.00155414
0.0017079
0.00190428
0.00216596
0.00251903
0.00298156
0.00351614
0.00409445
0.00466289
0.00512226
0.00540691
0.00108258
0.00118307
0.00122226
0.00121966
0.00122007
0.00119002
0.0011584
0.00115204
0.00117984
0.00124072
0.00132566
0.00142781
0.00154704
0.00168942
0.00186718
0.00209979
0.00241296
0.0028311
0.00336237
0.00394645
0.0045631
0.00513649
0.0055813
0.00585399
0.00106156
0.0011388
0.00116536
0.00117598
0.00115773
0.00113624
0.00113948
0.0011737
0.00123783
0.00132292
0.00142238
0.00153579
0.00166812
0.00182931
0.00203517
0.00230815
0.00267435
0.0031529
0.00373939
0.00435702
0.00499186
0.00555463
0.00598318
0.00623512
0.00102854
0.00108873
0.00111022
0.00111302
0.00110442
0.00111582
0.00115653
0.00122557
0.00131316
0.00141196
0.00152097
0.00164456
0.00179141
0.00197442
0.00221165
0.00252634
0.00294217
0.00347058
0.00409315
0.00472834
0.00536123
0.00590096
0.00631149
0.00653461
0.000986755
0.00103594
0.00106224
0.00105983
0.00107626
0.00112519
0.00120177
0.00129498
0.00139594
0.00150272
0.00161932
0.00175388
0.00191771
0.00212537
0.00239534
0.00274927
0.0032059
0.00376812
0.0044069
0.00504171
0.00565283
0.00616007
0.00654517
0.00674239
0.000938196
0.00098014
0.00100404
0.00102018
0.00107793
0.00116361
0.00126568
0.00137254
0.00148039
0.00159259
0.00171713
0.00186481
0.00204831
0.00228226
0.00258358
0.00297004
0.00345386
0.00402994
0.00466538
0.00527891
0.00585319
0.00631958
0.00667173
0.00684814
0.0008845
0.000932636
0.000954504
0.00100921
0.00110446
0.00121998
0.00133844
0.00145241
0.00156404
0.00168142
0.00181562
0.00197893
0.00218414
0.00244431
0.00277286
0.00318189
0.00367645
0.00424527
0.00485431
0.00543083
0.00595248
0.00637372
0.00668301
0.00683859
0.00082608
0.000893372
0.000922644
0.00102036
0.00115286
0.00128885
0.00141533
0.00153187
0.00164622
0.00177006
0.00191636
0.00209773
0.00232567
0.00261018
0.00295958
0.00337915
0.00386696
0.00440754
0.00496804
0.00549294
0.00594642
0.00631024
0.00657278
0.00670547
0.000763898
0.000858354
0.000908844
0.00105534
0.00121428
0.00136234
0.00149219
0.00160983
0.00172766
0.00186011
0.00202107
0.00222238
0.00247296
0.00277845
0.00314107
0.00355882
0.00402331
0.00451644
0.00500883
0.0054637
0.0058356
0.00612574
0.00633391
0.00643864
0.000701072
0.000829924
0.000916857
0.00110429
0.00128367
0.00143835
0.00156854
0.00168681
0.00180959
0.00195315
0.00213125
0.00235372
0.00262582
0.00294806
0.00331625
0.00372143
0.00414946
0.00458054
0.00498947
0.00534841
0.00563318
0.00582512
0.00595415
0.00601747
0.000643825
0.000814027
0.000938211
0.00116274
0.00135874
0.00151529
0.00164403
0.00176356
0.00189343
0.00205078
0.00224812
0.00249223
0.00278398
0.00311857
0.00348587
0.00387092
0.00425475
0.00461581
0.00493171
0.00518112
0.00534624
0.00541835
0.00541018
0.00538006
0.000597705
0.000802719
0.000969819
0.00123557
0.00143768
0.00159199
0.00171874
0.001841
0.00198049
0.00215422
0.00237241
0.00263797
0.00294708
0.00329007
0.00365201
0.00401345
0.00435178
0.00464342
0.00486603
0.00499929
0.00502313
0.00491699
0.00467454
0.00434266
0.000561225
0.000797668
0.00101908
0.00131849
0.0015178
0.00166818
0.00179358
0.00192049
0.00207212
0.00226443
0.00250438
0.00279047
0.00311445
0.00346263
0.00381676
0.00415474
0.00445199
0.00468341
0.00482512
0.00485392
0.00474106
0.00443603
0.00383549
0.0028412
0.000530772
0.00080698
0.00108133
0.00139961
0.00159743
0.0017444
0.00186954
0.00200308
0.00216916
0.00238167
0.00264346
0.00294849
0.0032846
0.00363529
0.00398046
0.00429715
0.00456077
0.00474684
0.00483268
0.0047981
0.0046244
0.0042904
0.00376459
0.00305443
0.000508173
0.000826228
0.00115752
0.00148042
0.00167835
0.00182188
0.00194765
0.00208962
0.00227201
0.00250558
0.00278835
0.00310986
0.00345491
0.00380529
0.00414033
0.00443746
0.00467345
0.00482618
0.00487633
0.00480829
0.00461023
0.0042731
0.00378939
0.00319185
0.000493336
0.00085513
0.00124816
0.00156734
0.00176274
0.00190169
0.00202869
0.00218056
0.00238046
0.00263513
0.00293706
0.00327173
0.00362183
0.00396847
0.00429129
0.00456879
0.00477972
0.00490485
0.00492874
0.0048406
0.00463414
0.00430693
0.00386171
0.00333844
0.00048519
0.000895708
0.0013538
0.00166336
0.00185143
0.00198437
0.00211307
0.00227576
0.00249355
0.00276868
0.00308716
0.00343097
0.00378166
0.00412054
0.00442812
0.00468442
0.00487032
0.00496953
0.00497032
0.00486632
0.00465616
0.00434298
0.00393561
0.00346427
0.00048323
0.000959529
0.00146618
0.00176714
0.00194443
0.00207012
0.00220075
0.00237428
0.0026094
0.00290434
0.00323622
0.0035847
0.00393127
0.00425813
0.00454707
0.0047797
0.00493904
0.00501155
0.00498888
0.0048685
0.00465312
0.00435004
0.00397187
0.0035414
0.00048873
0.00105856
0.00158133
0.00187862
0.002042
0.00215866
0.00229037
0.00247515
0.0027275
0.00304056
0.00338205
0.00373048
0.00406832
0.00437912
0.00464609
0.00485246
0.00498323
0.00502749
0.00498011
0.00484232
0.00462066
0.00432592
0.00397291
0.00357896
0.000506686
0.00117518
0.0017377
0.0020065
0.00214389
0.00224796
0.00238109
0.00257827
0.00284776
0.00317573
0.00352269
0.00386646
0.00419133
0.00448249
0.00472453
0.00490213
0.00500217
0.00501622
0.00494245
0.00478589
0.00455692
0.0042694
0.00394004
0.00358443
1.12347e-06
1.36146e-05
4.81916e-05
0.000115635
0.000203376
6.14689e-05
3.512e-05
0.000117073
0.000232264
0.000379772
0.000490305
0.00055967
5.14219e-05
0.00024163
0.000446524
0.000674142
0.000882036
0.00108479
5.76674e-05
0.000347535
0.00064023
0.000933857
0.00121571
0.00149977
6.25557e-05
0.000431286
0.000803357
0.00114836
0.00147474
0.00178874
6.63689e-05
0.000497516
0.000934948
0.00131982
0.00167119
0.00198924
6.92968e-05
0.000549862
0.00103836
0.00145293
0.00181714
0.00212683
7.1483e-05
0.000591364
0.00111722
0.00155251
0.0019215
0.00221858
7.30384e-05
0.000624067
0.00117482
0.00162258
0.00199212
0.00227583
7.40485e-05
0.000648987
0.00121341
0.00166657
0.00203478
0.00230552
7.45801e-05
0.000666324
0.0012343
0.00168706
0.00205289
0.00231297
7.46756e-05
0.000675672
0.00123809
0.00168626
0.00204847
0.00230146
7.44016e-05
0.000676171
0.00122508
0.00166469
0.00202289
0.00227249
7.37793e-05
0.000666878
0.00119508
0.00162238
0.00197629
0.00222475
7.27451e-05
0.000647991
0.00114803
0.00156051
0.00191138
0.00216122
7.12556e-05
0.000619289
0.00108402
0.00147762
0.0018256
0.00207873
6.9264e-05
0.000580178
0.00100232
0.00137299
0.00171673
0.00197442
6.67071e-05
0.000529793
0.000902603
0.00124615
0.00158107
0.00184413
6.34946e-05
0.000466859
0.000784785
0.00109682
0.00141416
0.00168107
5.95018e-05
0.000390926
0.000649178
0.000923532
0.00121347
0.00147593
5.4553e-05
0.00030111
0.000497037
0.00072648
0.000979028
0.0012106
4.84035e-05
0.000198345
0.000331676
0.000509614
0.00071479
0.000866009
3.05598e-05
8.80721e-05
0.000162512
0.000284188
0.000436008
0.000451908
8.45575e-07
8.67406e-06
3.36473e-05
9.30374e-05
0.000178433
5.29007e-05
0.000588985
0.00143203
0.00193967
0.00214205
0.00224453
0.00233573
0.00247233
0.00268331
0.00296918
0.00330898
0.0036566
0.00399131
0.00429957
0.0045681
0.00478267
0.00492919
0.00499622
0.00497792
0.00487597
0.00469961
0.0044633
0.00418401
0.00388033
0.00356809
0.00122583
0.00184983
0.00214145
0.00226625
0.00233689
0.00241969
0.0025634
0.00278963
0.00309066
0.00343882
0.00378238
0.00410426
0.00439298
0.00463651
0.00482149
0.0049348
0.00496666
0.00491404
0.00478275
0.00458691
0.0043454
0.00407803
0.00380452
0.00354014
0.00167042
0.00211051
0.00229281
0.00236547
0.0024173
0.00249894
0.00265386
0.00289644
0.00321094
0.00356341
0.00389887
0.00420503
0.00447206
0.00468883
0.0048425
0.00492072
0.00491554
0.00482734
0.00466697
0.00445413
0.00421206
0.00396234
0.00372375
0.00350854
0.00196819
0.00228213
0.0024019
0.00244401
0.00248759
0.00257423
0.00274354
0.00300282
0.00332893
0.00368069
0.00400541
0.00429388
0.0045378
0.00472656
0.00484753
0.00488915
0.00484568
0.00472188
0.0045347
0.00430982
0.00407384
0.00384791
0.0036471
0.00347837
0.00217225
0.00240519
0.00248151
0.00250725
0.00254995
0.00264622
0.00283202
0.00310753
0.00344298
0.00379037
0.00410207
0.00437154
0.00459149
0.00475142
0.00483871
0.0048427
0.00476067
0.00460296
0.00439353
0.00416356
0.00394092
0.00374345
0.00358019
0.00345216
0.00231289
0.00249093
0.00253879
0.00255895
0.00260598
0.00271522
0.00291859
0.00320932
0.00355184
0.00389197
0.00418917
0.00443899
0.00463463
0.00476532
0.00481833
0.00478437
0.00466479
0.00447677
0.00425156
0.00402432
0.00382117
0.00365412
0.00352533
0.00343074
0.0024083
0.00254832
0.00257916
0.00260188
0.00265673
0.00278107
0.00300231
0.00330693
0.00365449
0.00398531
0.0042673
0.0044974
0.00466882
0.0047702
0.00478883
0.00471749
0.00456281
0.00434979
0.0041164
0.00389906
0.00371923
0.00358169
0.00348244
0.00341399
0.00247016
0.00258429
0.00260682
0.00263785
0.00270262
0.00284323
0.00308205
0.00339918
0.00375011
0.00407048
0.00433721
0.00454803
0.00469565
0.00476803
0.00475277
0.0046456
0.00445968
0.00422818
0.00399408
0.003792
0.00363652
0.00352543
0.00345014
0.00340137
0.0025061
0.00260382
0.00262478
0.00266767
0.00274344
0.00290083
0.00315666
0.00348505
0.00383816
0.00414775
0.0043998
0.00459213
0.00471671
0.00476078
0.00471274
0.00457233
0.00436014
0.00411707
0.00388859
0.00370466
0.00357221
0.00348327
0.00342657
0.00339223
0.00252174
0.00261043
0.00263513
0.00269101
0.00277836
0.0029527
0.00322499
0.00356369
0.0039182
0.00421752
0.00445598
0.00463097
0.00473354
0.00475038
0.00467137
0.00450117
0.00426832
0.0040201
0.00380171
0.00363652
0.00352422
0.00345281
0.00340972
0.00338584
0.00252087
0.00260643
0.00263958
0.00270584
0.00280604
0.0029976
0.00328605
0.00363458
0.00398977
0.00428029
0.00450673
0.00466581
0.00474765
0.00473879
0.00463122
0.00443538
0.0041875
0.00393936
0.00373344
0.00358583
0.00349028
0.00343114
0.00339847
0.0033816
0.00250585
0.00259311
0.00263802
0.00271216
0.00282551
0.00303443
0.00333902
0.00369763
0.00405234
0.00433672
0.00455305
0.00469784
0.00476053
0.0047279
0.00459479
0.00437776
0.00411998
0.00387555
0.00368249
0.0035499
0.00346709
0.00341773
0.00339194
0.00337912
0.00247796
0.00257099
0.00262974
0.00271005
0.00283608
0.00306227
0.00338313
0.00375222
0.00410769
0.00438787
0.00459597
0.00472821
0.00477358
0.00471953
0.00456428
0.00433055
0.00406713
0.00382846
0.00364727
0.00352682
0.0034529
0.00341013
0.00338827
0.00337778
0.00243755
0.00254008
0.00261386
0.00269878
0.00283684
0.00308032
0.00341781
0.00379824
0.00415646
0.00443449
0.00463631
0.0047579
0.004788
0.00471523
0.00454152
0.00429531
0.00402945
0.00379711
0.0036257
0.00351381
0.00344624
0.00340756
0.00338737
0.0033774
0.00238435
0.00250011
0.0025891
0.00267714
0.00282672
0.00308782
0.00344273
0.00383576
0.00419907
0.00447715
0.00467474
0.00478768
0.0048048
0.00471627
0.00452787
0.00427294
0.00400684
0.00378046
0.00361644
0.00351044
0.00344647
0.003409
0.00338847
0.00337774
0.002319
0.00245083
0.00255346
0.00264348
0.0028046
0.00308415
0.0034577
0.00386494
0.00423588
0.00451629
0.00471175
0.00481815
0.00482474
0.0047236
0.00452419
0.0042638
0.00399898
0.00377686
0.00361759
0.00351437
0.00345116
0.00341351
0.00339148
0.00337872
0.00223915
0.0023923
0.00250333
0.00259576
0.00276944
0.00306898
0.00346284
0.00388612
0.00426727
0.00455227
0.00474768
0.00484971
0.00484836
0.00473785
0.00453076
0.00426721
0.0040033
0.00378508
0.00362809
0.00352513
0.00346059
0.00342062
0.00339576
0.00338012
0.00214381
0.0023244
0.00243551
0.00253093
0.00272011
0.00304252
0.00345872
0.00389994
0.00429367
0.00458539
0.00478279
0.00488259
0.00487593
0.00475859
0.00454677
0.00428309
0.00402127
0.00380442
0.00364717
0.00354211
0.00347429
0.00343044
0.00340152
0.00338201
0.00203038
0.00224468
0.0023522
0.00245071
0.00265531
0.00300363
0.00344554
0.00390721
0.00431564
0.00461598
0.00481719
0.00491677
0.00490683
0.00478629
0.00457426
0.00431109
0.0040509
0.003834
0.00367431
0.00356507
0.00349222
0.00344303
0.00340888
0.00338451
0.00189553
0.00215088
0.00225177
0.00235632
0.00257794
0.00295344
0.0034229
0.00390719
0.00433269
0.00464396
0.00485093
0.00495222
0.00494228
0.00482219
0.00461083
0.00435015
0.00409151
0.00387327
0.00370927
0.00359399
0.00351447
0.00345858
0.00341801
0.00338776
0.00173594
0.00203974
0.00213412
0.00224824
0.00249106
0.00289572
0.00339348
0.00390129
0.00434516
0.00466862
0.00488306
0.00498885
0.00498134
0.0048635
0.00465576
0.00439922
0.00414235
0.00392183
0.00375203
0.00362908
0.00354134
0.00347737
0.00342921
0.00339196
0.00154233
0.00190362
0.00199746
0.0021301
0.00239911
0.00283422
0.00336066
0.00389223
0.004354
0.00469048
0.00491403
0.00502589
0.00502298
0.00490998
0.00470835
0.00445736
0.00420265
0.00397938
0.00380269
0.00367066
0.00357325
0.00349983
0.00344281
0.00339733
0.00128159
0.0017379
0.00184991
0.00201443
0.00230851
0.00277287
0.00332709
0.00388183
0.00436018
0.00470994
0.00494364
0.00506298
0.00506665
0.0049609
0.00476742
0.00452345
0.00427165
0.0040456
0.00386135
0.00371913
0.00361071
0.00352643
0.00345918
0.00340413
0.000854871
0.00154818
0.00172132
0.00191188
0.00222462
0.00271435
0.0032945
0.00387141
0.00436445
0.00472717
0.00497148
0.00509955
0.00511157
0.00501514
0.00483177
0.00459636
0.00434848
0.0041201
0.0039281
0.0037749
0.00365428
0.00355773
0.00347853
0.00341233
1.13922e-06
3.81411e-06
1.0678e-05
2.25179e-05
5.56912e-05
5.16137e-05
3.30718e-05
6.09222e-05
9.35632e-05
0.000103895
9.17396e-05
0.000135798
0.000183904
0.000123509
0.000153275
0.000153293
0.000163042
0.000254263
4.72484e-05
0.000158604
0.000191927
0.000189821
0.000232208
0.000341823
4.95205e-05
0.000186059
0.000222983
0.000230962
0.000299586
0.000409029
5.31705e-05
0.000213074
0.000251037
0.000274674
0.000345082
0.000465738
5.5609e-05
0.000238124
0.000276864
0.000316959
0.000381661
0.000516947
5.7578e-05
0.000261077
0.000303191
0.000353644
0.000408211
0.000560902
5.91583e-05
0.000281956
0.000330595
0.00038135
0.00043354
0.000594947
6.03356e-05
0.000300713
0.000357566
0.00040385
0.000458091
0.000619849
6.11281e-05
0.000317038
0.000383022
0.000423723
0.000481363
0.000636853
6.1519e-05
0.00033089
0.000406184
0.000444044
0.000503137
0.000647553
6.14895e-05
0.000342053
0.000427341
0.00046452
0.000524203
0.000654028
6.10447e-05
0.000350161
0.0004467
0.000487051
0.000545304
0.000659893
6.02165e-05
0.000354604
0.000463695
0.000511677
0.000562354
0.00066455
5.90489e-05
0.000355229
0.000477156
0.00053691
0.000585862
0.000672183
5.75767e-05
0.000350895
0.000485234
0.000561133
0.000608229
0.000687026
5.58145e-05
0.000340242
0.000485611
0.000578809
0.00062952
0.000703721
5.36963e-05
0.000321196
0.000472891
0.000581791
0.000647671
0.000712043
5.10963e-05
0.000290486
0.000442585
0.000562165
0.000651211
0.000700032
4.77837e-05
0.000243703
0.00038799
0.000514644
0.000617685
0.000665466
0.000186325
0.000176286
0.0002994
0.000420625
0.000528773
0.000577029
3.29792e-05
8.77235e-05
0.000170687
0.000266208
0.000370322
0.000372532
1.04501e-06
8.75589e-06
3.22016e-05
7.31759e-05
0.000139889
0.000201921
0.000813618
0.0014778
0.00164055
0.00182273
0.00214646
0.00265696
0.00326255
0.0038618
0.00436754
0.00474234
0.00499733
0.005135
0.0051569
0.00507167
0.00490024
0.00467502
0.00443237
0.00420254
0.00400303
0.0038384
0.00370454
0.00359424
0.00350121
0.00342202
0.000815793
0.00137414
0.00154517
0.00172354
0.00206785
0.00260577
0.00323492
0.00385425
0.00437024
0.00475545
0.00502091
0.00516878
0.00520184
0.00512947
0.00497175
0.00475841
0.00452259
0.00429262
0.00408631
0.00391014
0.00376211
0.00363646
0.00352759
0.00343328
0.000852012
0.00132251
0.00146632
0.0016439
0.00201318
0.00257389
0.00321964
0.00385155
0.00437345
0.00476703
0.00504202
0.0052003
0.00524552
0.00518748
0.00504512
0.00484544
0.00461829
0.00438987
0.00417791
0.00399043
0.00382747
0.00368489
0.00355829
0.00344635
0.000887517
0.0012812
0.00142515
0.00161406
0.00199801
0.00256843
0.00321957
0.00385548
0.0043775
0.00477729
0.00506026
0.00522876
0.00528686
0.00524439
0.00511894
0.00493466
0.00471817
0.0044933
0.00427727
0.00407917
0.00390087
0.00374005
0.00359387
0.00346148
0.000916633
0.00124524
0.00139019
0.00159662
0.00200047
0.00258019
0.00323142
0.00386277
0.0043808
0.00478436
0.00507434
0.00525284
0.00532434
0.00529847
0.00519129
0.00502414
0.00482035
0.00460128
0.00438317
0.0041757
0.00398223
0.0038022
0.00363447
0.00347847
0.000932596
0.0012118
0.00135959
0.00158611
0.00200818
0.00259529
0.00324769
0.00386756
0.00438104
0.00478675
0.00508263
0.00527076
0.00535595
0.00534748
0.00525975
0.0051113
0.00492228
0.00471142
0.0044936
0.00427855
0.00407068
0.00387091
0.0036797
0.00349679
0.000937466
0.00117957
0.00133213
0.00157922
0.00201792
0.0026103
0.00326003
0.00386507
0.0043768
0.00478277
0.00508318
0.00528029
0.00537918
0.00538862
0.00532129
0.00519297
0.0050207
0.0048205
0.0046056
0.00438523
0.00416428
0.00394477
0.00372849
0.00351548
0.00093388
0.00114799
0.00130672
0.00157359
0.00202699
0.00262276
0.00326774
0.00385636
0.00436447
0.00476975
0.0050734
0.00527867
0.00539102
0.00541861
0.00537235
0.00526536
0.00511163
0.00492447
0.00471518
0.00449203
0.00425986
0.00402117
0.00377875
0.00353292
0.000924014
0.00111689
0.00128245
0.00156749
0.00203334
0.00263059
0.0032692
0.00384802
0.00434434
0.00474549
0.00505047
0.00526277
0.00538806
0.00543375
0.00540897
0.00532422
0.00519057
0.00501861
0.00481751
0.00459422
0.00435294
0.00409616
0.00382708
0.00354643
0.0009095
0.00108619
0.00125872
0.00155966
0.00203528
0.00263105
0.00325307
0.00382393
0.00431093
0.00470639
0.00501099
0.00522913
0.00536664
0.00543014
0.00542699
0.00536515
0.00525284
0.00509796
0.00490741
0.00468649
0.0044383
0.00416471
0.00386879
0.00355196
0.000891622
0.00105583
0.00123504
0.00154906
0.00203114
0.00262263
0.00323057
0.00378621
0.00426127
0.00464895
0.00495147
0.00517419
0.00532311
0.00540399
0.00542245
0.00538402
0.00529416
0.00515805
0.00498022
0.00476398
0.00451095
0.00422174
0.00389855
0.0035441
0.000871477
0.00102577
0.00121093
0.00153466
0.00201917
0.00260176
0.0031926
0.00373114
0.00419181
0.00456964
0.00486847
0.0050946
0.00525411
0.00535195
0.00539204
0.0053776
0.00531143
0.005196
0.00503322
0.00482412
0.00456826
0.0042643
0.00391228
0.00351669
0.000850221
0.000996467
0.00118537
0.00151389
0.00199642
0.00256345
0.00313561
0.00365484
0.00409892
0.00446514
0.00475891
0.00498746
0.00515689
0.00527142
0.00533344
0.00534408
0.00530364
0.00521186
0.0050679
0.00486988
0.00461443
0.00429677
0.00391218
0.00346479
0.000827289
0.000965986
0.001156
0.00148298
0.00195279
0.00250532
0.00305587
0.0035536
0.00397935
0.00433264
0.00462037
0.00485055
0.00502943
0.00516065
0.00524544
0.00528323
0.00527224
0.00520986
0.00509255
0.00491522
0.00466979
0.0043439