/*--------------------------------*- C++ -*----------------------------------*\
  =========                 |
  \\      /  F ield         | OpenFOAM: The Open Source CFD Toolbox
   \\    /   O peration     | Website:  https://openfoam.org
    \\  /    A nd           | Version:  11
     \\/     M anipulation  |
\*---------------------------------------------------------------------------*/
FoamFile
{
    format      ascii;
    class       surfaceScalarField;
    location    "1.34";
    object      phi;
}
// * * * * * * * * * * * * * * * * * * * * * * * * * * * * * * * * * * * * * //

dimensions      [0 3 -1 0 0 0 0];

internalField   nonuniform List<scalar> 
5640
(
1.62211e-07
-1.62211e-07
6.35841e-07
-4.73629e-07
1.30824e-06
-6.72402e-07
2.26079e-06
-9.52552e-07
3.41423e-06
-1.15344e-06
-1.54958e-06
4.96381e-06
3.09207e-07
-4.71419e-07
8.09048e-07
-9.7347e-07
1.46805e-06
-1.33141e-06
2.25062e-06
-1.73512e-06
3.12169e-06
-2.0245e-06
-2.20005e-06
3.77216e-06
3.61527e-07
-8.32946e-07
8.39085e-07
-1.45103e-06
1.43024e-06
-1.92256e-06
2.05821e-06
-2.36309e-06
2.67342e-06
-2.63972e-06
-2.61641e-06
3.08978e-06
3.8649e-07
-1.21944e-06
8.22755e-07
-1.88729e-06
1.32512e-06
-2.42493e-06
1.81571e-06
-2.85368e-06
2.26311e-06
-3.08712e-06
-2.96742e-06
2.61413e-06
3.96315e-07
-1.61575e-06
7.74648e-07
-2.26562e-06
1.18116e-06
-2.83144e-06
1.54947e-06
-3.22199e-06
1.86866e-06
-3.4063e-06
-3.2517e-06
2.15294e-06
3.84484e-07
-2.00024e-06
6.99573e-07
-2.58071e-06
1.0107e-06
-3.14257e-06
1.26831e-06
-3.4796e-06
1.47433e-06
-3.61232e-06
-3.45012e-06
1.67275e-06
3.31042e-07
-2.33128e-06
5.97798e-07
-2.84747e-06
8.22038e-07
-3.36681e-06
9.78588e-07
-3.63615e-06
1.07805e-06
-3.71178e-06
-3.54843e-06
1.17637e-06
2.68238e-07
-2.59952e-06
4.79129e-07
-3.05836e-06
6.23652e-07
-3.51133e-06
6.86755e-07
-3.69925e-06
6.84137e-07
-3.70916e-06
-3.53865e-06
6.74353e-07
1.9997e-07
-2.79949e-06
3.52135e-07
-3.21053e-06
4.22938e-07
-3.58213e-06
3.99759e-07
-3.67608e-06
3.00497e-07
-3.6099e-06
-3.41802e-06
1.79863e-07
1.28931e-07
-2.92842e-06
2.22609e-07
-3.3042e-06
2.2602e-07
-3.58554e-06
1.24729e-07
-3.57479e-06
-6.40508e-08
-3.42112e-06
-3.18928e-06
-2.92788e-07
5.73641e-08
-2.98578e-06
9.48671e-08
-3.34171e-06
3.79271e-08
-3.5286e-06
-1.31738e-07
-3.40512e-06
-4.00472e-07
-3.15239e-06
-2.86049e-06
-7.29259e-07
-1.3025e-08
-2.97276e-06
-2.78397e-08
-3.32689e-06
-1.37212e-07
-3.41923e-06
-3.64131e-07
-3.1782e-06
-7.0046e-07
-2.81606e-06
-2.44481e-06
-1.11615e-06
-7.906e-08
-2.8937e-06
-1.43145e-07
-3.26281e-06
-2.96485e-07
-3.26589e-06
-5.68202e-07
-2.90648e-06
-9.56849e-07
-2.42741e-06
-1.95995e-06
-1.4417e-06
-1.40549e-07
-2.75315e-06
-2.49364e-07
-3.15399e-06
-4.38046e-07
-3.07721e-06
-7.41054e-07
-2.60348e-06
-1.1642e-06
-2.00426e-06
-1.42765e-06
-1.6965e-06
-1.95927e-07
-2.55722e-06
-3.45379e-07
-3.00454e-06
-5.6117e-07
-2.86142e-06
-8.81367e-07
-2.28328e-06
-1.3192e-06
-1.56642e-06
-8.72914e-07
-1.87395e-06
-2.44044e-07
-2.31318e-06
-4.30594e-07
-2.81799e-06
-6.6626e-07
-2.62575e-06
-9.89591e-07
-1.95995e-06
-1.421e-06
-1.13501e-06
-3.23177e-07
-1.97074e-06
-2.83858e-07
-2.02932e-06
-5.04826e-07
-2.59702e-06
-7.5484e-07
-2.37574e-06
-1.06812e-06
-1.64667e-06
-1.47151e-06
-7.31622e-07
1.92429e-07
-1.98712e-06
-3.13923e-07
-1.7154e-06
-5.68247e-07
-2.3427e-06
-8.29523e-07
-2.11446e-06
-1.12144e-06
-1.35475e-06
-1.47566e-06
-3.77405e-07
6.43713e-07
-1.92694e-06
-3.32152e-07
-1.38324e-06
-6.21033e-07
-2.05382e-06
-8.93906e-07
-1.84159e-06
-1.15629e-06
-1.09236e-06
-1.44167e-06
-9.20296e-08
9.99533e-07
-1.79749e-06
-3.3502e-07
-1.04822e-06
-6.62934e-07
-1.7259e-06
-9.52379e-07
-1.55214e-06
-1.18195e-06
-8.62792e-07
-1.38147e-06
1.07496e-07
1.2269e-06
-1.60884e-06
-3.21949e-07
-7.26274e-07
-6.94534e-07
-1.35332e-06
-1.0098e-06
-1.23688e-06
-1.21066e-06
-6.61926e-07
-1.31263e-06
2.09469e-07
1.28706e-06
-1.3728e-06
-3.03268e-07
-4.23006e-07
-7.19493e-07
-9.37093e-07
-1.07004e-06
-8.86337e-07
-1.25765e-06
-4.74311e-07
-1.25834e-06
2.10155e-07
1.12933e-06
-1.10061e-06
-2.69063e-07
-1.53943e-07
-7.28386e-07
-4.7777e-07
-1.13002e-06
-4.84707e-07
-1.33494e-06
-2.69389e-07
-1.2446e-06
1.19817e-07
6.97645e-07
-8.12914e-07
-1.53943e-07
-6.31713e-07
-1.11642e-06
-1.38581e-06
-1.26599e-06
-5.68347e-07
1.1207e-05
7.2044e-06
-1.34475e-05
1.51121e-05
1.49238e-05
-1.8829e-05
1.8163e-05
1.91579e-05
-2.22088e-05
2.07842e-05
2.15427e-05
-2.41638e-05
2.30947e-05
2.28779e-05
-2.51884e-05
2.5186e-05
2.35293e-05
-2.56206e-05
2.71134e-05
2.37647e-05
-2.56921e-05
2.88898e-05
2.37459e-05
-2.55223e-05
3.05233e-05
2.35827e-05
-2.52163e-05
3.20509e-05
2.33032e-05
-2.48308e-05
3.34846e-05
2.29593e-05
-2.4393e-05
3.4831e-05
2.25648e-05
-2.39112e-05
3.60926e-05
2.21243e-05
-2.3386e-05
3.72708e-05
2.16362e-05
-2.28144e-05
3.83672e-05
2.10948e-05
-2.21912e-05
3.93841e-05
2.04932e-05
-2.15101e-05
4.03238e-05
1.98229e-05
-2.07627e-05
4.11896e-05
1.90732e-05
-1.99389e-05
4.19839e-05
1.82315e-05
-1.90258e-05
4.27057e-05
1.72804e-05
-1.80023e-05
4.33526e-05
1.61915e-05
-1.68384e-05
4.3924e-05
1.49201e-05
-1.54916e-05
4.44294e-05
1.33784e-05
-1.38838e-05
1.13817e-05
-1.1864e-05
8.12741e-06
2.84915e-06
1.32378e-05
9.81344e-06
1.75746e-05
1.48211e-05
2.10526e-05
1.80647e-05
2.39582e-05
1.99723e-05
2.6496e-05
2.09915e-05
2.8779e-05
2.14816e-05
3.08822e-05
2.16428e-05
3.28554e-05
2.16095e-05
3.4687e-05
2.14716e-05
3.63779e-05
2.12684e-05
3.79573e-05
2.09855e-05
3.94337e-05
2.06479e-05
4.08102e-05
2.02598e-05
4.20911e-05
1.98139e-05
4.32787e-05
1.93056e-05
4.43754e-05
1.87262e-05
4.53842e-05
1.80644e-05
4.63081e-05
1.73076e-05
4.71475e-05
1.6441e-05
4.78972e-05
1.54418e-05
4.85492e-05
1.42681e-05
4.91017e-05
1.28259e-05
1.08903e-05
5.81972e-06
1.19215e-07
1.02764e-05
5.35678e-06
1.51266e-05
9.97085e-06
1.96881e-05
1.35032e-05
2.36332e-05
1.60272e-05
2.69458e-05
1.76789e-05
2.98127e-05
1.86146e-05
3.23775e-05
1.9078e-05
3.47177e-05
1.92693e-05
3.68944e-05
1.92949e-05
3.89524e-05
1.92104e-05
4.08683e-05
1.90696e-05
4.2628e-05
1.88881e-05
4.42495e-05
1.86383e-05
4.57533e-05
1.83101e-05
4.71424e-05
1.79165e-05
4.84206e-05
1.7448e-05
4.95925e-05
1.68925e-05
5.06614e-05
1.62388e-05
5.16299e-05
1.54726e-05
5.24949e-05
1.45767e-05
5.32432e-05
1.35199e-05
5.38552e-05
1.22139e-05
1.03921e-05
4.32382e-06
-1.59048e-06
7.61087e-06
2.06973e-06
1.18368e-05
5.74493e-06
1.64446e-05
8.89533e-06
2.10869e-05
1.13849e-05
2.54623e-05
1.33036e-05
2.93471e-05
1.47298e-05
3.27233e-05
1.57018e-05
3.5705e-05
1.62876e-05
3.8405e-05
1.65948e-05
4.08782e-05
1.67372e-05
4.31629e-05
1.67849e-05
4.53123e-05
1.67387e-05
4.7321e-05
1.66296e-05
4.91569e-05
1.64742e-05
5.08201e-05
1.62533e-05
5.23336e-05
1.59345e-05
5.37142e-05
1.55118e-05
5.4965e-05
1.4988e-05
5.60905e-05
1.4347e-05
5.70941e-05
1.35731e-05
5.79667e-05
1.26473e-05
5.86731e-05
1.15075e-05
9.86701e-06
3.27834e-06
-2.71588e-06
5.55229e-06
-2.04218e-07
8.81333e-06
2.48389e-06
1.27439e-05
4.96473e-06
1.70668e-05
7.06211e-06
2.15874e-05
8.78293e-06
2.61416e-05
1.01756e-05
3.05358e-05
1.13077e-05
3.45845e-05
1.22389e-05
3.82107e-05
1.29687e-05
4.14539e-05
1.3494e-05
4.43858e-05
1.38531e-05
4.70592e-05
1.40652e-05
4.95035e-05
1.41854e-05
5.17543e-05
1.42234e-05
5.38431e-05
1.41644e-05
5.57537e-05
1.40239e-05
5.74638e-05
1.38017e-05
5.89829e-05
1.34689e-05
6.03335e-05
1.29964e-05
6.15299e-05
1.23768e-05
6.25747e-05
1.16024e-05
6.34359e-05
1.06463e-05
9.2605e-06
2.42014e-06
-3.46327e-06
3.95975e-06
-1.74383e-06
6.31942e-06
1.24217e-07
9.37552e-06
1.90863e-06
1.29604e-05
3.47724e-06
1.69422e-05
4.8011e-06
2.12039e-05
5.91391e-06
2.5641e-05
6.87057e-06
3.0172e-05
7.70788e-06
3.46722e-05
8.46844e-06
3.89911e-05
9.17511e-06
4.30048e-05
9.83936e-06
4.66436e-05
1.04264e-05
4.99233e-05
1.09057e-05
5.28813e-05
1.12654e-05
5.55485e-05
1.14972e-05
5.79548e-05
1.16177e-05
6.01357e-05
1.16208e-05
6.211e-05
1.14946e-05
6.38644e-05
1.1242e-05
6.53891e-05
1.08521e-05
6.6699e-05
1.02925e-05
6.7819e-05
9.52629e-06
8.46681e-06
1.63027e-06
-3.91717e-06
2.63593e-06
-2.74949e-06
4.26743e-06
-1.50729e-06
6.50316e-06
-3.27097e-07
9.26763e-06
7.12767e-07
1.24806e-05
1.58818e-06
1.6074e-05
2.32044e-06
1.9993e-05
2.95159e-06
2.41762e-05
3.5247e-06
2.85619e-05
4.08272e-06
3.30848e-05
4.65225e-06
3.76803e-05
5.24378e-06
4.22385e-05
5.86824e-06
4.66276e-05
6.5166e-06
5.0729e-05
7.16397e-06
5.44595e-05
7.76674e-06
5.7804e-05
8.27317e-06
6.07814e-05
8.64338e-06
6.34171e-05
8.85892e-06
6.5747e-05
8.9121e-06
6.78048e-05
8.7942e-06
6.96032e-05
8.49415e-06
7.11431e-05
7.98638e-06
7.3008e-06
8.7253e-07
-4.11535e-06
1.45752e-06
-3.33448e-06
2.50788e-06
-2.55765e-06
4.04202e-06
-1.86123e-06
6.03926e-06
-1.28448e-06
8.4633e-06
-8.35859e-07
1.12799e-05
-4.96157e-07
1.44612e-05
-2.29699e-07
1.79809e-05
5.01792e-09
2.1814e-05
2.49561e-07
2.59284e-05
5.37829e-07
3.02799e-05
8.92323e-07
3.48162e-05
1.33194e-06
3.94726e-05
1.86024e-06
4.41731e-05
2.46339e-06
4.88162e-05
3.12368e-06
5.32784e-05
3.81091e-06
5.74414e-05
4.4804e-06
6.12185e-05
5.08182e-06
6.45744e-05
5.5562e-06
6.75173e-05
5.85129e-06
7.00772e-05
5.93428e-06
7.22651e-05
5.79848e-06
5.56419e-06
1.44545e-07
-4.08003e-06
3.7395e-07
-3.56388e-06
9.41112e-07
-3.12482e-06
1.87895e-06
-2.79907e-06
3.19357e-06
-2.5991e-06
4.87739e-06
-2.51968e-06
6.92121e-06
-2.53997e-06
9.31812e-06
-2.62661e-06
1.20639e-05
-2.74073e-06
1.51544e-05
-2.84097e-06
1.8582e-05
-2.88977e-06
2.23312e-05
-2.85692e-06
2.63811e-05
-2.71795e-06
3.06993e-05
-2.45788e-06
3.52357e-05
-2.07305e-06
3.99278e-05
-1.56837e-06
4.4699e-05
-9.60341e-07
4.94583e-05
-2.78888e-07
5.41039e-05
4.36223e-07
5.8521e-05
1.1391e-06
6.25987e-05
1.77358e-06
6.62498e-05
2.2832e-06
6.94752e-05
2.57306e-06
2.7668e-06
-5.4258e-07
-3.83024e-06
-6.24526e-07
-3.48193e-06
-4.72941e-07
-3.2764e-06
-5.05339e-08
-3.22147e-06
6.59743e-07
-3.30938e-06
1.66789e-06
-3.52783e-06
2.98121e-06
-3.8533e-06
4.60898e-06
-4.25438e-06
6.56266e-06
-4.69441e-06
8.85428e-06
-5.1326e-06
1.14936e-05
-5.52912e-06
1.44843e-05
-5.84757e-06
1.78229e-05
-6.05655e-06
2.14974e-05
-6.13244e-06
2.54854e-05
-6.06104e-06
2.97535e-05
-5.83643e-06
3.4255e-05
-5.46185e-06
3.89274e-05
-4.95128e-06
4.36919e-05
-4.32827e-06
4.84565e-05
-3.62552e-06
5.31176e-05
-2.88755e-06
5.75648e-05
-2.16398e-06
6.16958e-05
-1.55794e-06
-1.11248e-06
-1.17224e-06
-3.38725e-06
-1.52725e-06
-3.12693e-06
-1.7362e-06
-3.06745e-06
-1.76286e-06
-3.19481e-06
-1.58342e-06
-3.48882e-06
-1.18065e-06
-3.9306e-06
-5.36071e-07
-4.49787e-06
3.71015e-07
-5.16146e-06
1.56415e-06
-5.88755e-06
3.06771e-06
-6.63616e-06
4.90401e-06
-7.36543e-06
7.09082e-06
-8.03438e-06
9.63981e-06
-8.60553e-06
1.25552e-05
-9.04784e-06
1.58308e-05
-9.33668e-06
1.94485e-05
-9.45403e-06
2.33782e-05
-9.39155e-06
2.75793e-05
-9.15245e-06
3.20014e-05
-8.75037e-06
3.65841e-05
-8.20822e-06
4.12547e-05
-7.55812e-06
4.59331e-05
-6.84241e-06
5.0533e-05
-6.15784e-06
-5.7466e-06
-1.72626e-06
-2.77714e-06
-2.31448e-06
-2.53871e-06
-2.8298e-06
-2.55212e-06
-3.23822e-06
-2.7864e-06
-3.51501e-06
-3.21203e-06
-3.63792e-06
-3.80769e-06
-3.5819e-06
-4.5539e-06
-3.31705e-06
-5.42631e-06
-2.80987e-06
-6.39473e-06
-2.02548e-06
-7.42056e-06
-9.31044e-07
-8.45986e-06
5.00914e-07
-9.46634e-06
2.29143e-06
-1.03961e-05
4.45465e-06
-1.12111e-05
6.99446e-06
-1.18765e-05
9.90505e-06
-1.23646e-05
1.31718e-05
-1.26583e-05
1.67709e-05
-1.27515e-05
2.06684e-05
-1.26479e-05
2.48243e-05
-1.23642e-05
2.91996e-05
-1.19334e-05
3.37711e-05
-1.14139e-05
3.85333e-05
-1.092e-05
-1.07277e-05
-2.18732e-06
-2.03152e-06
-2.96377e-06
-1.76227e-06
-3.72635e-06
-1.78954e-06
-4.44374e-06
-2.069e-06
-5.09062e-06
-2.56515e-06
-5.64397e-06
-3.25434e-06
-6.0749e-06
-4.12297e-06
-6.3441e-06
-5.15711e-06
-6.40863e-06
-6.33019e-06
-6.22244e-06
-7.60675e-06
-5.74144e-06
-8.94086e-06
-4.93003e-06
-1.02777e-05
-3.76258e-06
-1.15635e-05
-2.21874e-06
-1.27549e-05
-2.91443e-07
-1.38038e-05
2.01654e-06
-1.46726e-05
4.69532e-06
-1.53371e-05
7.7297e-06
-1.57859e-05
1.10994e-05
-1.60176e-05
1.47845e-05
-1.60492e-05
1.87714e-05
-1.59204e-05
2.30653e-05
-1.57078e-05
2.76914e-05
-1.55461e-05
-1.56211e-05
-2.54064e-06
-1.18738e-06
-3.45397e-06
-8.4894e-07
-4.39596e-06
-8.47552e-07
-5.33833e-06
-1.12662e-06
-6.25892e-06
-1.64456e-06
-7.13121e-06
-2.38205e-06
-7.92129e-06
-3.33289e-06
-8.58666e-06
-4.49174e-06
-9.07428e-06
-5.84257e-06
-9.32576e-06
-7.35528e-06
-9.28266e-06
-8.98395e-06
-8.89781e-06
-1.06626e-05
-8.14101e-06
-1.23203e-05
-6.98803e-06
-1.39079e-05
-5.43385e-06
-1.5358e-05
-3.4864e-06
-1.66201e-05
-1.16393e-06
-1.76596e-05
1.50979e-06
-1.84596e-05
4.5106e-06
-1.90184e-05
7.81036e-06
-1.9349e-05
1.13777e-05
-1.94877e-05
1.51706e-05
-1.95006e-05
1.9149e-05
-1.95245e-05
-1.97297e-05
-2.77548e-06
-2.85838e-07
-3.769e-06
1.44573e-07
-4.81598e-06
1.99431e-07
-5.89015e-06
-5.24529e-08
-6.97025e-06
-5.64461e-07
-8.02781e-06
-1.32449e-06
-9.02177e-06
-2.33892e-06
-9.89898e-06
-3.61453e-06
-1.05998e-05
-5.14177e-06
-1.10622e-05
-6.89285e-06
-1.12248e-05
-8.82133e-06
-1.10307e-05
-1.08567e-05
-1.04376e-05
-1.29134e-05
-9.42471e-06
-1.49208e-05
-7.98463e-06
-1.6798e-05
-6.12313e-06
-1.84816e-05
-3.86287e-06
-1.99199e-05
-1.24042e-06
-2.1082e-05
1.70311e-06
-2.19619e-05
4.92459e-06
-2.25705e-05
8.36979e-06
-2.29329e-05
1.19555e-05
-2.30863e-05
1.55381e-05
-2.31071e-05
-2.32298e-05
-2.88614e-06
6.29557e-07
-3.8995e-06
1.15794e-06
-4.97124e-06
1.27117e-06
-6.07463e-06
1.05093e-06
-7.18663e-06
5.47535e-07
-8.27477e-06
-2.36346e-07
-9.29681e-06
-1.31689e-06
-1.02032e-05
-2.70814e-06
-1.09341e-05
-4.41088e-06
-1.14207e-05
-6.40622e-06
-1.15926e-05
-8.64939e-06
-1.1371e-05
-1.10784e-05
-1.06806e-05
-1.36037e-05
-9.50205e-06
-1.60993e-05
-7.83566e-06
-1.84644e-05
-5.70853e-06
-2.06087e-05
-3.16243e-06
-2.2466e-05
-2.41982e-07
-2.40025e-05
3.00711e-06
-2.5211e-05
6.54776e-06
-2.61111e-05
1.03481e-05
-2.67333e-05
1.43778e-05
-2.7116e-05
1.85993e-05
-2.73286e-05
-2.7505e-05
-2.87267e-06
1.51511e-06
-3.84466e-06
2.12992e-06
-4.85868e-06
2.28519e-06
-5.88575e-06
2.078e-06
-6.90355e-06
1.56534e-06
-7.8819e-06
7.42011e-07
-8.78062e-06
-4.18168e-07
-9.54472e-06
-1.94404e-06
-1.01017e-05
-3.85387e-06
-1.03623e-05
-6.1457e-06
-1.02301e-05
-8.78154e-06
-9.62071e-06
-1.16878e-05
-8.50316e-06
-1.47213e-05
-6.84863e-06
-1.77539e-05
-4.67123e-06
-2.06418e-05
-2.00554e-06
-2.32744e-05
1.08977e-06
-2.55613e-05
4.55015e-06
-2.74628e-05
8.32766e-06
-2.89885e-05
1.23904e-05
-3.01738e-05
1.67282e-05
-3.10711e-05
2.13529e-05
-3.17407e-05
2.62665e-05
-3.22421e-05
-3.25039e-05
-2.74136e-06
2.32953e-06
-3.61311e-06
3.00168e-06
-4.48806e-06
3.16014e-06
-5.33208e-06
2.92202e-06
-6.12237e-06
2.35563e-06
-6.82462e-06
1.44426e-06
-7.39248e-06
1.49688e-07
-7.76231e-06
-1.57422e-06
-7.85155e-06
-3.76463e-06
-7.56851e-06
-6.42874e-06
-6.82373e-06
-9.52632e-06
-5.56049e-06
-1.29511e-05
-3.7391e-06
-1.65427e-05
-1.35496e-06
-2.0138e-05
1.5586e-06
-2.35554e-05
4.93236e-06
-2.66481e-05
8.69192e-06
-2.93208e-05
1.2755e-05
-3.15259e-05
1.70452e-05
-3.32787e-05
2.15117e-05
-3.46403e-05
2.61313e-05
-3.56908e-05
3.09068e-05
-3.65162e-05
3.5848e-05
-3.71834e-05
-3.75596e-05
-2.50476e-06
3.0368e-06
-3.22395e-06
3.72086e-06
-3.88307e-06
3.81926e-06
-4.44297e-06
3.48191e-06
-4.8749e-06
2.78757e-06
-5.13446e-06
1.70382e-06
-5.16398e-06
1.79203e-07
-4.89184e-06
-1.84635e-06
-4.23577e-06
-4.4207e-06
-3.12226e-06
-7.54225e-06
-1.48282e-06
-1.11658e-05
6.90153e-07
-1.5124e-05
3.41097e-06
-1.92635e-05
6.64621e-06
-2.33732e-05
1.03445e-05
-2.72537e-05
1.44252e-05
-3.07288e-05
1.87836e-05
-3.36793e-05
2.33089e-05
-3.60512e-05
2.79032e-05
-3.7873e-05
3.24998e-05
-3.92369e-05
3.70547e-05
-4.02457e-05
4.15361e-05
-4.09975e-05
4.59248e-05
-4.1572e-05
-4.18732e-05
-2.18143e-06
3.60939e-06
-2.70312e-06
4.24255e-06
-3.08393e-06
4.20007e-06
-3.27953e-06
3.67752e-06
-3.24217e-06
2.75021e-06
-2.91834e-06
1.38e-06
-2.24266e-06
-4.96481e-07
-1.14416e-06
-2.94485e-06
4.40437e-07
-6.0053e-06
2.56026e-06
-9.66208e-06
5.2046e-06
-1.38101e-05
8.36174e-06
-1.82812e-05
1.19727e-05
-2.28744e-05
1.59721e-05
-2.73726e-05
2.02761e-05
-3.15577e-05
2.47813e-05
-3.52341e-05
2.93679e-05
-3.82659e-05
3.39172e-05
-4.06005e-05
3.83388e-05
-4.22947e-05
4.25877e-05
-4.34858e-05
4.66251e-05
-4.42831e-05
5.03981e-05
-4.47705e-05
5.38575e-05
-4.50315e-05
-4.49626e-05
-1.79629e-06
4.03288e-06
-2.09387e-06
4.54013e-06
-2.15392e-06
4.26013e-06
-1.92226e-06
3.44585e-06
-1.34203e-06
2.16997e-06
-3.52755e-07
3.90724e-07
1.1093e-06
-1.95854e-06
3.09931e-06
-4.93486e-06
5.64223e-06
-8.54821e-06
8.71925e-06
-1.27391e-05
1.22778e-05
-1.73687e-05
1.62397e-05
-2.22431e-05
2.05091e-05
-2.71438e-05
2.49799e-05
-3.18435e-05
2.95251e-05
-3.61029e-05
3.40113e-05
-3.97203e-05
3.83189e-05
-4.25735e-05
4.23533e-05
-4.46349e-05
4.60601e-05
-4.60015e-05
4.94599e-05
-4.68856e-05
5.25563e-05
-4.73795e-05
5.53183e-05
-4.75324e-05
5.77325e-05
-4.74457e-05
-4.69629e-05
-1.38691e-06
4.31919e-06
-1.45112e-06
4.60434e-06
-1.16322e-06
3.97223e-06
-4.72153e-07
2.75479e-06
6.79333e-07
1.01849e-06
2.34921e-06
-1.27915e-06
4.58341e-06
-4.19273e-06
7.39796e-06
-7.74941e-06
1.07676e-05
-1.19178e-05
1.46226e-05
-1.65941e-05
1.88611e-05
-2.16072e-05
2.33638e-05
-2.67458e-05
2.80035e-05
-3.17835e-05
3.26226e-05
-3.64626e-05
3.70565e-05
-4.05368e-05
4.11664e-05
-4.38301e-05
4.48659e-05
-4.62731e-05
4.81209e-05
-4.78898e-05
5.09394e-05
-4.882e-05
5.34357e-05
-4.93819e-05
5.56252e-05
-4.95691e-05
5.75125e-05
-4.94196e-05
5.91052e-05
-4.90385e-05
-4.82287e-05
-1.01969e-06
4.52596e-06
-8.41831e-07
4.42648e-06
-1.87701e-07
3.3181e-06
9.699e-07
1.59719e-06
2.68306e-06
-6.94673e-07
4.99411e-06
-3.5902e-06
7.91773e-06
-7.11635e-06
1.14273e-05
-1.1259e-05
1.54514e-05
-1.5942e-05
1.98796e-05
-2.10223e-05
2.45743e-05
-2.63018e-05
2.9381e-05
-3.15525e-05
3.41167e-05
-3.65191e-05
3.85851e-05
-4.0931e-05
4.26168e-05
-4.45685e-05
4.61112e-05
-4.73245e-05
4.90586e-05
-4.92205e-05
5.15022e-05
-5.03334e-05
5.35983e-05
-5.09161e-05
5.53932e-05
-5.11769e-05
5.68968e-05
-5.10726e-05
5.81727e-05
-5.06955e-05
5.92305e-05
-5.00963e-05
-4.90478e-05
-8.35763e-07
4.79338e-06
-3.37776e-07
3.92849e-06
7.01734e-07
2.27859e-06
2.32078e-06
-2.18576e-08
4.56498e-06
-2.93887e-06
7.4547e-06
-6.47992e-06
1.09698e-05
-1.06314e-05
1.50448e-05
-1.5334e-05
1.95706e-05
-2.04677e-05
2.43955e-05
-2.58473e-05
2.93388e-05
-3.12451e-05
3.41943e-05
-3.6408e-05
3.87335e-05
-4.10584e-05
4.2752e-05
-4.49495e-05
4.61269e-05
-4.79434e-05
4.88506e-05
-5.00482e-05
5.10092e-05
-5.13791e-05
5.27799e-05
-5.21041e-05
5.42941e-05
-5.24303e-05
5.55131e-05
-5.23959e-05
5.65254e-05
-5.20849e-05
5.74077e-05
-5.15778e-05
5.8155e-05
-5.08437e-05
-4.96549e-05
-7.74418e-08
7.74418e-08
-3.56345e-07
2.78903e-07
-6.77134e-07
3.20789e-07
-9.5919e-07
2.82056e-07
-1.21132e-06
2.52133e-07
5.80403e-07
-1.79173e-06
-1.93539e-07
2.70981e-07
-5.57624e-07
6.42988e-07
-9.5255e-07
7.15716e-07
-1.29484e-06
6.24341e-07
-1.60725e-06
5.64549e-07
8.49053e-07
-1.8759e-06
-2.50657e-07
5.21637e-07
-6.51365e-07
1.0437e-06
-1.09347e-06
1.15782e-06
-1.48796e-06
1.01883e-06
-1.80526e-06
8.81847e-07
9.50664e-07
-1.90687e-06
-2.8975e-07
8.11387e-07
-7.08303e-07
1.46225e-06
-1.1711e-06
1.62062e-06
-1.58444e-06
1.43218e-06
-1.87665e-06
1.17405e-06
9.60356e-07
-1.88634e-06
-3.21233e-07
1.13262e-06
-7.40622e-07
1.88164e-06
-1.20298e-06
2.08297e-06
-1.61139e-06
1.84059e-06
-1.87104e-06
1.4337e-06
9.02147e-07
-1.81283e-06
-3.45305e-07
1.47793e-06
-7.5049e-07
2.28682e-06
-1.19417e-06
2.52665e-06
-1.58504e-06
2.23146e-06
-1.80999e-06
1.65865e-06
7.83695e-07
-1.69154e-06
-3.56077e-07
1.834e-06
-7.36017e-07
2.66676e-06
-1.14901e-06
2.93964e-06
-1.51412e-06
2.59657e-06
-1.7022e-06
1.84674e-06
6.07839e-07
-1.52635e-06
-3.45668e-07
2.17967e-06
-6.94891e-07
3.01599e-06
-1.07155e-06
3.3163e-06
-1.40404e-06
2.92906e-06
-1.5528e-06
1.9955e-06
3.76052e-07
-1.32101e-06
-3.19245e-07
2.49892e-06
-6.28856e-07
3.3256e-06
-9.64164e-07
3.65161e-06
-1.25955e-06
3.22445e-06
-1.36793e-06
2.10387e-06
9.02318e-08
-1.08211e-06
-2.78871e-07
2.77779e-06
-5.40223e-07
3.58695e-06
-8.29375e-07
3.94076e-06
-1.0843e-06
3.47938e-06
-1.15339e-06
2.17297e-06
-2.44798e-07
-8.18364e-07
-2.26091e-07
3.00388e-06
-4.31425e-07
3.79228e-06
-6.69822e-07
4.17916e-06
-8.82354e-07
3.69191e-06
-9.16484e-07
2.2071e-06
-6.19945e-07
-5.41337e-07
-1.62339e-07
3.16622e-06
-3.05047e-07
3.93499e-06
-4.8815e-07
4.36226e-06
-6.57474e-07
3.86123e-06
-6.64703e-07
2.21433e-06
-1.0184e-06
-2.66247e-07
-8.90762e-08
3.25529e-06
-1.63685e-07
4.0096e-06
-2.8683e-07
4.4854e-06
-4.13299e-07
3.9877e-06
-4.05426e-07
2.20645e-06
-1.41919e-06
-4.6402e-09
-6.44123e-09
3.26173e-06
-1.10858e-08
4.01424e-06
-6.82615e-08
4.54258e-06
-1.52234e-07
4.07168e-06
-1.46872e-07
2.20109e-06
-1.78387e-06
2.17812e-07
8.20898e-08
3.17965e-06
1.52599e-07
3.94373e-06
1.65275e-07
4.5299e-06
1.25343e-07
4.11161e-06
1.14021e-07
2.21241e-06
-2.08313e-06
4.13279e-07
1.82761e-07
2.99688e-06
3.2162e-07
3.80488e-06
4.10738e-07
4.44079e-06
4.19949e-07
4.1024e-06
3.96825e-07
2.23554e-06
-2.27943e-06
5.93127e-07
3.05771e-07
2.69111e-06
4.90374e-07
3.62027e-06
6.64249e-07
4.26691e-06
7.31308e-07
4.03534e-06
6.99212e-07
2.26763e-06
-2.35757e-06
7.77352e-07
3.7491e-07
2.3162e-06
6.4594e-07
3.34924e-06
9.20227e-07
3.99262e-06
1.05962e-06
3.89595e-06
1.03287e-06
2.29438e-06
-2.30774e-06
9.83036e-07
4.13175e-07
1.90303e-06
7.83854e-07
2.97856e-06
1.1724e-06
3.60408e-06
1.40355e-06
3.6648e-06
1.40477e-06
2.29316e-06
-2.12739e-06
1.22443e-06
4.36095e-07
1.46693e-06
8.99976e-07
2.51468e-06
1.41317e-06
3.09088e-06
1.75994e-06
3.31803e-06
1.82066e-06
2.23244e-06
-1.82884e-06
1.52211e-06
4.40763e-07
1.02617e-06
9.89026e-07
1.96642e-06
1.63123e-06
2.44868e-06
2.12377e-06
2.82549e-06
2.28925e-06
2.06696e-06
-1.44799e-06
1.90839e-06
4.25346e-07
6.00824e-07
1.04464e-06
1.34712e-06
1.80497e-06
1.68836e-06
2.48721e-06
2.14324e-06
2.83782e-06
1.71635e-06
-1.02911e-06
2.41894e-06
3.78681e-07
2.22143e-07
1.05424e-06
6.71562e-07
1.90462e-06
8.3798e-07
2.82486e-06
1.223e-06
3.45481e-06
1.0864e-06
-5.83912e-07
3.00962e-06
2.22143e-07
8.93705e-07
1.73169e-06
2.95469e-06
4.04109e-06
3.45717e-06
-8.98403e-07
3.90006e-06
1.15331e-08
3.01855e-06
1.46401e-06
8.2611e-07
3.53515e-06
-2.09299e-06
6.27601e-06
-5.67973e-06
9.68463e-06
-9.88854e-06
1.37082e-05
-1.4655e-05
1.82436e-05
-1.98695e-05
2.31301e-05
-2.53542e-05
2.81627e-05
-3.08798e-05
3.31117e-05
-3.61941e-05
3.77203e-05
-4.10166e-05
4.17507e-05
-4.50887e-05
4.50611e-05
-4.826e-05
4.76512e-05
-5.05334e-05
4.96351e-05
-5.20321e-05
5.11794e-05
-5.29234e-05
5.24357e-05
-5.33604e-05
5.34404e-05
-5.3435e-05
5.42797e-05
-5.32353e-05
5.50266e-05
-5.28318e-05
5.56981e-05
-5.22492e-05
5.62955e-05
-5.14411e-05
-5.01902e-05
-9.93056e-07
3.01721e-06
2.91014e-07
1.73448e-06
2.11851e-06
-1.00139e-06
4.61928e-06
-4.59377e-06
7.82655e-06
-8.887e-06
1.17088e-05
-1.37707e-05
1.61743e-05
-1.91205e-05
2.10564e-05
-2.47515e-05
2.6128e-05
-3.04259e-05
3.11353e-05
-3.58871e-05
3.5793e-05
-4.08519e-05
3.98356e-05
-4.50592e-05
4.31081e-05
-4.83612e-05
4.56157e-05
-5.07676e-05
4.74909e-05
-5.24086e-05
4.89088e-05
-5.345e-05
5.00166e-05
-5.40312e-05
5.09039e-05
-5.42477e-05
5.16468e-05
-5.41779e-05
5.23045e-05
-5.38929e-05
5.29116e-05
-5.3439e-05
5.34832e-05
-5.28207e-05
5.40217e-05
-5.19796e-05
-5.07122e-05
-9.91921e-07
2.10226e-06
5.33853e-07
2.08709e-07
2.70806e-06
-3.17559e-06
5.62041e-06
-7.50611e-06
9.2733e-06
-1.25399e-05
1.35917e-05
-1.80892e-05
1.84064e-05
-2.39352e-05
2.34697e-05
-2.98149e-05
2.84996e-05
-3.54557e-05
3.31826e-05
-4.05701e-05
3.72296e-05
-4.48989e-05
4.04784e-05
-4.8308e-05
4.29407e-05
-5.08235e-05
4.47583e-05
-5.25852e-05
4.611e-05
-5.37603e-05
4.71447e-05
-5.44848e-05
4.7965e-05
-5.48515e-05
4.86453e-05
-5.4928e-05
4.92423e-05
-5.47749e-05
4.97986e-05
-5.44492e-05
5.03374e-05
-5.39778e-05
5.08689e-05
-5.33522e-05
5.13933e-05
-5.2504e-05
-5.1248e-05
-9.28378e-07
1.1443e-06
7.93906e-07
-1.51358e-06
3.29283e-06
-5.67452e-06
6.60799e-06
-1.08213e-05
1.06891e-05
-1.6621e-05
1.53692e-05
-2.27693e-05
2.03768e-05
-2.89428e-05
2.53977e-05
-3.48357e-05
3.00868e-05
-4.01448e-05
3.41321e-05
-4.46154e-05
3.73678e-05
-4.81346e-05
3.98121e-05
-5.07523e-05
4.16107e-05
-5.26221e-05
4.29397e-05
-5.39142e-05
4.3945e-05
-5.47656e-05
4.47303e-05
-5.52701e-05
4.53699e-05
-5.54911e-05
4.59208e-05
-5.54789e-05
4.64305e-05
-5.52846e-05
4.6931e-05
-5.49496e-05
4.74373e-05
-5.44841e-05
4.79537e-05
-5.38687e-05
4.84788e-05
-5.30291e-05
-5.18016e-05
-8.05546e-07
1.37017e-07
1.10663e-06
-3.42575e-06
3.93082e-06
-8.49872e-06
7.64733e-06
-1.45378e-05
1.21018e-05
-2.10755e-05
1.69997e-05
-2.76672e-05
2.19835e-05
-3.39266e-05
2.66661e-05
-3.95184e-05
3.07099e-05
-4.41886e-05
3.3944e-05
-4.78495e-05
3.63907e-05
-5.05813e-05
3.81946e-05
-5.25563e-05
3.95253e-05
-5.39527e-05
4.05232e-05
-5.49122e-05
4.12917e-05
-5.5534e-05
4.19058e-05
-5.58842e-05
4.24235e-05
-5.60088e-05
4.2893e-05
-5.59483e-05
4.33519e-05
-5.57436e-05
4.38214e-05
-5.54191e-05
4.43094e-05
-5.4972e-05
4.48158e-05
-5.4375e-05
4.53399e-05
-5.35533e-05
-5.23651e-05
-6.18203e-07
-9.36322e-07
1.49952e-06
-5.54347e-06
4.66414e-06
-1.16633e-05
8.75506e-06
-1.86287e-05
1.34627e-05
-2.57831e-05
1.83735e-05
-3.25779e-05
2.30441e-05
-3.85972e-05
2.70956e-05
-4.35699e-05
3.03434e-05
-4.74364e-05
3.28093e-05
-5.03154e-05
3.46342e-05
-5.24063e-05
3.59803e-05
-5.39023e-05
3.69825e-05
-5.49549e-05
3.77426e-05
-5.56724e-05
3.83371e-05
-5.61285e-05
3.8825e-05
-5.63722e-05
3.92552e-05
-5.6439e-05
3.96674e-05
-5.63605e-05
4.00891e-05
-5.61654e-05
4.05327e-05
-5.58627e-05
4.10008e-05
-5.54401e-05
4.14913e-05
-5.48655e-05
4.20059e-05
-5.40679e-05
-5.29261e-05
-3.64086e-07
-2.09858e-06
1.9892e-06
-7.89675e-06
5.49936e-06
-1.51735e-05
9.88117e-06
-2.30105e-05
1.46626e-05
-3.05645e-05
1.93128e-05
-3.72282e-05
2.33869e-05
-4.26713e-05
2.6669e-05
-4.68519e-05
2.91712e-05
-4.99386e-05
3.10288e-05
-5.2173e-05
3.23983e-05
-5.37758e-05
3.3411e-05
-5.49149e-05
3.41673e-05
-5.57112e-05
3.47442e-05
-5.62493e-05
3.52021e-05
-5.65864e-05
3.55905e-05
-5.67605e-05
3.59501e-05
-5.67986e-05
3.63124e-05
-5.67228e-05
3.66959e-05
-5.65488e-05
3.71068e-05
-5.62736e-05
3.75451e-05
-5.58784e-05
3.80083e-05
-5.53288e-05
3.85008e-05
-5.45604e-05
-5.34701e-05
-4.11909e-08
-3.3784e-06
2.57116e-06
-1.05091e-05
6.39519e-06
-1.89975e-05
1.09321e-05
-2.75474e-05
1.55378e-05
-3.51702e-05
1.96537e-05
-4.13442e-05
2.29959e-05
-4.60134e-05
2.55529e-05
-4.9409e-05
2.7454e-05
-5.18396e-05
2.88528e-05
-5.35719e-05
2.98793e-05
-5.48022e-05
3.06337e-05
-5.56693e-05
3.11936e-05
-5.62712e-05
3.16205e-05
-5.66761e-05
3.19642e-05
-5.69301e-05
3.22663e-05
-5.70626e-05
3.25603e-05
-5.70926e-05
3.28697e-05
-5.70322e-05
3.32063e-05
-5.68854e-05
3.35729e-05
-5.66403e-05
3.39685e-05
-5.6274e-05
3.43914e-05
-5.57517e-05
3.48477e-05
-5.50166e-05
-5.39812e-05
3.30525e-07
-4.79104e-06
3.22523e-06
-1.34038e-05
7.28071e-06
-2.3053e-05
1.17662e-05
-3.20328e-05
1.59367e-05
-3.93408e-05
1.93721e-05
-4.47795e-05
2.20087e-05
-4.86501e-05
2.39664e-05
-5.13667e-05
2.54003e-05
-5.32735e-05
2.64428e-05
-5.46143e-05
2.71959e-05
-5.55554e-05
2.77387e-05
-5.62122e-05
2.81336e-05
-5.6666e-05
2.84311e-05
-5.69736e-05
2.8673e-05
-5.71719e-05
2.88934e-05
-5.72831e-05
2.91188e-05
-5.73181e-05
2.93665e-05
-5.72798e-05
2.96439e-05
-5.71628e-05
2.99527e-05
-5.69491e-05
3.02918e-05
-5.66131e-05
3.06609e-05
-5.61207e-05
3.10667e-05
-5.54224e-05
-5.44441e-05
7.43649e-07
-6.35305e-06
3.90343e-06
-1.65636e-05
8.06024e-06
-2.72098e-05
1.22574e-05
-3.623e-05
1.58207e-05
-4.29041e-05
1.85713e-05
-4.75301e-05
2.06057e-05
-5.06845e-05
2.20836e-05
-5.28446e-05
2.31448e-05
-5.43347e-05
2.38966e-05
-5.53661e-05
2.44212e-05
-5.608e-05
2.47831e-05
-5.6574e-05
2.50338e-05
-5.69168e-05
2.52152e-05
-5.7155e-05
2.5361e-05
-5.73178e-05
2.54986e-05
-5.74207e-05
2.56482e-05
-5.74677e-05
2.58226e-05
-5.74542e-05
2.60276e-05
-5.73678e-05
2.62647e-05
-5.71862e-05
2.65338e-05
-5.68822e-05
2.68356e-05
-5.64226e-05
2.71775e-05
-5.57643e-05
-5.48452e-05
1.18068e-06
-8.07507e-06
4.54858e-06
-1.99315e-05
8.62379e-06
-3.1285e-05
1.23401e-05
-3.99463e-05
1.52535e-05
-4.58175e-05
1.73966e-05
-4.96732e-05
1.89341e-05
-5.2222e-05
2.00197e-05
-5.39303e-05
2.07706e-05
-5.50857e-05
2.1275e-05
-5.58705e-05
2.16013e-05
-5.64062e-05
2.18035e-05
-5.67762e-05
2.19243e-05
-5.70376e-05
2.19973e-05
-5.7228e-05
2.2049e-05
-5.73695e-05
2.20998e-05
-5.74714e-05
2.2165e-05
-5.75329e-05
2.22546e-05
-5.75438e-05
2.2374e-05
-5.74872e-05
2.25261e-05
-5.73383e-05
2.27123e-05
-5.70684e-05
2.29347e-05
-5.6645e-05
2.32006e-05
-5.60302e-05
-5.51725e-05
1.61909e-06
-9.96041e-06
5.10398e-06
-2.34164e-05
8.90419e-06
-3.50853e-05
1.20422e-05
-4.30843e-05
1.43465e-05
-4.81218e-05
1.59719e-05
-5.12985e-05
1.70942e-05
-5.33443e-05
1.78476e-05
-5.46836e-05
1.83302e-05
-5.55683e-05
1.86169e-05
-5.61571e-05
1.8766e-05
-5.65554e-05
1.88233e-05
-5.68335e-05
1.88235e-05
-5.70378e-05
1.87926e-05
-5.71971e-05
1.87497e-05
-5.73266e-05
1.87092e-05
-5.7431e-05
1.86822e-05
-5.75058e-05
1.86769e-05
-5.75385e-05
1.86992e-05
-5.75095e-05
1.87541e-05
-5.73932e-05
1.88454e-05
-5.71597e-05
1.89766e-05
-5.67763e-05
1.91552e-05
-5.62088e-05
-5.54156e-05
2.02651e-06
-1.19916e-05
5.51563e-06
-2.69055e-05
8.89247e-06
-3.84621e-05
1.14399e-05
-4.56317e-05
1.32043e-05
-4.98863e-05
1.43875e-05
-5.24817e-05
1.51524e-05
-5.41093e-05
1.56144e-05
-5.51456e-05
1.58577e-05
-5.58116e-05
1.59474e-05
-5.62468e-05
1.59342e-05
-5.65421e-05
1.58563e-05
-5.67556e-05
1.57415e-05
-5.6923e-05
1.56085e-05
-5.70641e-05
1.54701e-05
-5.71881e-05
1.53351e-05
-5.7296e-05
1.52105e-05
-5.73813e-05
1.51031e-05
-5.7431e-05
1.50194e-05
-5.74258e-05
1.49666e-05
-5.73404e-05
1.49514e-05
-5.71445e-05
1.49799e-05
-5.68048e-05
1.50609e-05
-5.62898e-05
-5.55669e-05
2.37146e-06
-1.41452e-05
5.74526e-06
-3.02793e-05
8.62283e-06
-4.13397e-05
1.06156e-05
-4.76245e-05
1.19065e-05
-5.11773e-05
1.27039e-05
-5.3279e-05
1.31523e-05
-5.45577e-05
1.33516e-05
-5.53449e-05
1.33759e-05
-5.5836e-05
1.32831e-05
-5.61539e-05
1.3117e-05
-5.6376e-05
1.29096e-05
-5.65482e-05
1.26819e-05
-5.66953e-05
1.24469e-05
-5.68291e-05
1.22117e-05
-5.6953e-05
1.19806e-05
-5.70648e-05
1.17567e-05
-5.71574e-05
1.15443e-05
-5.72187e-05
1.13498e-05
-5.72313e-05
1.11817e-05
-5.71722e-05
1.10499e-05
-5.70127e-05