/*--------------------------------*- C++ -*----------------------------------*\
  =========                 |
  \\      /  F ield         | OpenFOAM: The Open Source CFD Toolbox
   \\    /   O peration     | Website:  https://openfoam.org
    \\  /    A nd           | Version:  11
     \\/     M anipulation  |
\*---------------------------------------------------------------------------*/
FoamFile
{
    format      ascii;
    class       volScalarField;
    location    "1.5";
    object      epsilon;
}
// * * * * * * * * * * * * * * * * * * * * * * * * * * * * * * * * * * * * * //

dimensions      [0 2 -3 0 0 0 0];

internalField   nonuniform List<scalar> 
2880
(
1.87931
3.00026
6.03467
6.82895
6.62218
6.23215
0.821278
2.3103
3.55232
3.81738
3.60462
3.08426
0.232637
2.01284
2.62225
2.67316
2.42157
2.03116
0.260374
1.81675
2.16956
2.12185
1.88702
1.62547
0.28048
1.66663
1.88589
1.79749
1.60341
1.4454
1.27996
1.55325
1.68328
1.58536
1.43542
1.34933
1.3984
1.44854
1.52821
1.43511
1.32761
1.28315
1.49231
1.35886
1.40455
1.32209
1.24856
1.22943
1.55871
1.28229
1.30287
1.23217
1.18249
1.1805
1.59829
1.21617
1.21718
1.15685
1.12192
1.13236
1.61036
1.15895
1.14347
1.09047
1.06443
1.08339
1.60134
1.10996
1.0793
1.02991
1.0092
1.03439
1.57332
1.07037
1.02296
0.973634
0.956157
0.987454
1.53494
1.04019
0.973287
0.920941
0.905716
0.945901
1.48433
1.01627
0.929045
0.871475
0.858796
0.913583
1.41998
0.993584
0.888544
0.825025
0.816414
0.895063
1.33896
0.962448
0.849172
0.781497
0.779154
0.895498
1.21844
0.90322
0.807342
0.741367
0.747327
0.919081
0.277538
0.774088
0.760311
0.706332
0.722444
0.974152
0.266971
0.680368
0.717419
0.679506
0.707044
1.06555
0.251396
0.62874
0.696541
0.669523
0.707484
1.17381
0.230438
0.647355
0.721325
0.697626
0.735611
1.282
0.869816
0.875976
0.889549
0.854627
0.849914
1.49363
2.18822
2.11593
1.9215
1.74057
1.45547
1.55026
1.93522
1.5521
1.57253
1.70886
1.85351
1.9829
2.07168
2.11288
2.11997
2.08366
2.01402
1.92241
1.8183
1.70917
1.6005
1.49602
1.39814
1.30826
1.22702
1.15472
1.0916
1.03814
0.995177
0.962797
1.68323
1.49193
1.55962
1.71645
1.88942
2.0509
2.17131
2.23337
2.25112
2.21832
2.14407
2.04309
1.92751
1.80652
1.68656
1.57184
1.46486
1.36694
1.27861
1.19984
1.13051
1.07074
1.02097
0.981213
1.52214
1.45598
1.5711
1.76305
1.9837
2.20052
2.37765
2.48355
2.52559
2.5129
2.44476
2.34162
2.21965
2.09025
1.96103
1.83674
1.72008
1.61238
1.51408
1.42513
1.34535
1.27456
1.21186
1.15766
1.42955
1.4424
1.59976
1.83427
2.11537
2.40201
2.64046
2.78961
2.84922
2.81802
2.72418
2.59929
2.46031
2.31855
2.18113
2.0521
1.93337
1.82544
1.72801
1.64041
1.5619
1.4917
1.42762
1.36479
1.37205
1.44406
1.63534
1.91477
2.26156
2.61787
2.89349
3.02381
3.01482
2.93036
2.80988
2.66657
2.5148
2.36478
2.22263
2.09156
1.9727
1.86587
1.77021
1.68461
1.60808
1.53978
1.47846
1.41195
1.33504
1.44904
1.66934
1.99442
2.41046
2.82488
3.07013
3.11422
3.03285
2.87285
2.67979
2.48306
2.29673
2.12784
1.97876
1.84931
1.73759
1.64104
1.5571
1.48315
1.41782
1.35851
1.31028
1.24731
1.30758
1.45072
1.69803
2.07618
2.57846
3.02007
3.20949
3.10985
2.82188
2.48219
2.17287
1.90484
1.67929
1.48992
1.3355
1.21141
1.11131
1.02971
0.962393
0.904693
0.856343
0.808089
0.777174
0.72297
1.28088
1.4458
1.72415
2.18118
2.80886
3.26291
3.27938
2.94894
2.39475
1.92613
1.55632
1.26139
1.02646
0.846521
0.707869
0.600316
0.51671
0.451246
0.399545
0.357768
0.324406
0.294133
0.273852
0.244598
1.25018
1.43449
1.7574
2.35081
3.15387
3.53256
3.31325
2.64565
1.99015
1.52079
1.17722
0.919599
0.722764
0.569262
0.450279
0.358905
0.289558
0.237177
0.197327
0.166592
0.142952
0.12387
0.110018
0.0960047
1.21469
1.42165
1.81839
2.65217
3.62673
3.74517
3.22705
2.30746
1.69369
1.2811
0.985025
0.757925
0.579396
0.440504
0.333937
0.253472
0.193689
0.149959
0.118388
0.0953663
0.0783605
0.0657197
0.0566549
0.0503449
1.17704
1.41988
1.95307
3.17167
4.10942
3.85424
2.90263
2.02022
1.47022
1.09228
0.815896
0.606468
0.448518
0.331799
0.2467
0.184798
0.139509
0.106181
0.0816786
0.0638081
0.0509323
0.0419893
0.0364545
0.0340068
1.14317
1.45275
2.23988
3.94391
4.43073
3.82945
2.55364
1.76018
1.25765
0.903349
0.645913
0.45728
0.32286
0.229423
0.165268
0.121333
0.0910569
0.0698851
0.0548031
0.043913
0.0360492
0.0306476
0.0275602
0.0269645
1.12253
1.56034
2.82391
4.75044
4.55531
3.39043
2.20087
1.5083
1.04836
0.727895
0.501372
0.344214
0.237655
0.165992
0.117748
0.0851167
0.0629522
0.0478698
0.0376275
0.0307522
0.0263149
0.0237628
0.0228697
0.0233413
1.12729
1.79559
3.84462
5.12641
4.48063
2.90105
1.88508
1.26805
0.85424
0.571169
0.381135
0.256929
0.176217
0.123393
0.08832
0.064648
0.0484513
0.0373091
0.0297187
0.0247306
0.0217299
0.0203084
0.0202715
0.0210954
1.17397
2.24071
5.08268
5.21349
3.97347
2.44186
1.58623
1.03894
0.674739
0.43662
0.285508
0.190147
0.129556
0.0905494
0.0650401
0.0480916
0.0366824
0.0289624
0.0238052
0.0205293
0.0187114
0.0180928
0.0184104
0.0194829
1.29232
3.06878
5.72307
5.14424
3.3324
2.08108
1.32165
0.831324
0.520721
0.330325
0.214155
0.142466
0.0973766
0.0684269
0.0494896
0.0369216
0.0285186
0.0229282
0.0193152
0.0171633
0.0161423
0.01605
0.0166083
0.0177935
1.51119
4.42746
5.86417
4.67689
2.82809
1.74599
1.06686
0.64762
0.397679
0.249935
0.161733
0.107958
0.0743365
0.0527853
0.038666
0.0292664
0.0229703
0.0187996
0.0161545
0.0146619
0.0140769
0.0142066
0.0148997
0.016034
1.85571
5.83223
5.77524
4.1137
2.45208
1.44817
0.846576
0.499481
0.302285
0.189261
0.122815
0.0825118
0.0573095
0.0411215
0.0304929
0.0234076
0.018665
0.0155404
0.0135928
0.012549
0.0122298
0.0124641
0.0131951
0.0142357
2.4136
6.53655
5.72481
3.54082
2.03961
1.15516
0.654826
0.380385
0.229494
0.144229
0.0942443
0.0638544
0.0447712
0.0324574
0.0243384
0.0189091
0.0152711
0.0128817
0.0114113
0.0106567
0.0104846
0.0107564
0.0114559
0.012393
3.40303
6.76128
5.38617
3.09315
1.69761
0.915276
0.503961
0.290033
0.175279
0.110847
0.0730048
0.0498937
0.0353081
0.0258492
0.019582
0.0153711
0.0125374
0.0106707
0.00952303
0.00894317
0.00883283
0.00909025
0.00971343
0.0105439
5.00131
6.82551
5.00776
2.64193
1.3447
0.698121
0.381402
0.220673
0.134524
0.0858226
0.0570019
0.0392824
0.0280349
0.0207027
0.0158195
0.0125199
0.0102839
0.00879694
0.00786987
0.0073895
0.00728472
0.00749017
0.00800901
0.00873292
7.45965
7.29371
4.47507
2.12538
1.03209
0.529387
0.290265
0.169308
0.104108
0.0669673
0.0448258
0.0311237
0.0223759
0.0166428
0.0128038
0.0101929
0.00840674
0.00719998
0.00642497
0.00599471
0.00585795
0.00598073
0.00637219
0.00698699
9.60707
7.60349
3.53549
1.61355
0.771412
0.397739
0.220795
0.130397
0.0810319
0.052583
0.0354631
0.0247885
0.0179307
0.013411
0.0103672
0.00828221
0.00683961
0.00584437
0.00517738
0.0047678
0.00457516
0.00458614
0.00482086
0.00531112
12.2732
7.07347
2.81351
1.19738
0.569957
0.298952
0.168882
0.101119
0.0635063
0.0415568
0.0282197
0.0198393
0.0144207
0.0108286
0.00839489
0.00671491
0.0055381
0.00470697
0.00412211
0.00372098
0.00346449
0.00333764
0.0033788
0.00369211
2.39714
4.82276
7.08359
7.69339
7.99314
32.9158
0.974764
2.40561
3.81821
4.89299
5.67324
9.66144
0.260071
1.98021
3.10654
4.05415
4.59807
5.27229
0.279981
1.87764
2.80874
3.52218
3.68345
3.51548
1.24847
1.87171
2.63404
3.07731
2.97105
2.50643
1.39056
1.87584
2.50763
2.71725
2.44212
1.84427
1.50683
1.88324
2.40708
2.44603
2.03757
1.43267
1.59252
1.88732
2.32215
2.24855
1.73501
1.15879
1.64944
1.88359
2.25009
2.09426
1.51294
0.969173
1.68112
1.86952
2.18895
1.97124
1.34906
0.833907
1.69192
1.84482
2.13659
1.8761
1.2285
0.735307
1.68746
1.81073
2.09127
1.80802
1.14133
0.662903
1.67059
1.76841
2.05351
1.76611
1.08035
0.610417
1.63135
1.71821
2.02501
1.7495
1.04193
0.573825
1.56487
1.66022
2.00543
1.75424
1.02513
0.550353
1.47184
1.59356
1.9943
1.78277
1.03085
0.538655
1.35913
1.51586
1.98858
1.83431
1.06208
0.538569
1.2405
1.42268
1.98467
1.90831
1.12484
0.551319
0.280477
1.30577
1.97903
2.00338
1.22984
0.580356
0.26895
1.17533
1.96538
2.11817
1.39569
0.633741
0.251997
1.04499
1.92458
2.25438
1.65508
0.731256
0.228757
0.945786
1.84179
2.41699
2.06502
0.930025
0.852069
0.95422
1.75648
2.65599
2.70015
1.46213
1.95634
1.66093
2.17099
3.36771
3.63246
3.20087
14.9371
4.6748
1.81676
0.824835
0.415245
0.2253
0.129975
0.0789532
0.0501128
0.0330583
0.0225908
0.0159613
0.0116463
0.00876866
0.00680668
0.00544146
0.00447315
0.0037735
0.0032582
0.00286947
0.00256445
0.00231316
0.00212113
0.00212072
6.22738
2.64227
1.22091
0.596319
0.310004
0.171954
0.100952
0.0621525
0.0398481
0.0264866
0.0182047
0.0129192
0.00945724
0.00713529
0.00554281
0.00442669
0.00362682
0.00303911
0.00259345
0.00223959
0.0019376
0.00165461
0.00137052
0.000967499
3.59732
1.79306
0.868281
0.435424
0.232899
0.132391
0.0791569
0.0493715
0.0319509
0.021385
0.0147762
0.0105293
0.0077322
0.00584727
0.00454881
0.00363464
0.00297627
0.00248997
0.00211948
0.00182463
0.00157347
0.00134016
0.00110676
0.000794424
2.37902
1.23266
0.617439
0.321816
0.177692
0.103346
0.0627864
0.0396057
0.0258423
0.017404
0.012084
0.00864478
0.00636917
0.00483009
0.00376681
0.00301657
0.00247552
0.00207587
0.00177201
0.00153105
0.00132585
0.00113471
0.000947568
0.000714036
1.61472
0.864092
0.450595
0.24345
0.138067
0.0818317
0.0503838
0.0320891
0.0210875
0.0142796
0.00995813
0.00715019
0.00528527
0.00402043
0.00314489
0.00252632
0.00207989
0.00175007
0.00149936
0.00130045
0.00113059
0.00097274
0.00082261
0.00064746
1.15974
0.631456
0.339526
0.188594
0.109219
0.0657201
0.0409086
0.0262638
0.0173633
0.0118126
0.00826904
0.00595689
0.00441665
0.00336985
0.00264427
0.00213121
0.00176077
0.00148702
0.00127894
0.00111386
0.000972984
0.000843324
0.000723892
0.000592181
0.873468
0.479723
0.263568
0.149422
0.0879192
0.0535306
0.0336117
0.0217185
0.0144283
0.00985306
0.00691878
0.00499796
0.0037156
0.00284291
0.00223761
0.00180954
0.00150052
0.00127229
0.00109903
0.000961904
0.000845449
0.000739846
0.000645681
0.000546814
0.68652
0.377863
0.210387
0.120942
0.0719821
0.0442154
0.0279472
0.0181479
0.012101
0.00828753
0.00583331
0.00422306
0.00314663
0.00241373
0.00190551
0.00154639
0.0012875
0.00109669
0.000952306
0.000838613
0.000742862
0.000657561
0.00058384
0.000509847
0.559753
0.307249
0.172224
0.0998644
0.059903
0.0370274
0.023516
0.0153245
0.0102449
0.00703023
0.00495649
0.0035941
0.00268303
0.00206302
0.00163365
0.00133087
0.00111323
0.000953451
0.000833205
0.000739234
0.000660954
0.000592546
0.000535124
0.000479898
0.470877
0.256874
0.144234
0.0840144
0.0506399
0.0314306
0.0200242
0.0130784
0.00875696
0.00601583
0.00424538
0.00308189
0.00230431
0.00177598
0.00141102
0.00115457
0.000971075
0.000837163
0.000737149
0.000659742
0.000596073
0.000541503
0.000496885
0.000455742
0.407028
0.220119
0.123332
0.0719324
0.0434627
0.0270376
0.0172548
0.0112819
0.00755859
0.00519429
0.00366688
0.00266379
0.0019945
0.00154096
0.00122886
0.00101067
0.00085555
0.00074324
0.000660162
0.000596588
0.000545007
0.000501623
0.00046696
0.000436347
0.360405
0.192846
0.107505
0.0626197
0.0378532
0.0235658
0.0150463
0.00983854
0.00658994
0.00452699
0.00319524
0.00232204
0.00174094
0.00134865
0.00108008
0.000893563
0.000762053
0.000667773
0.000598818
0.00054671
0.00050503
0.000470592
0.000443624
0.000420874
0.326089
0.172373
0.0954081
0.0553809
0.0334395
0.0208075
0.0132777
0.00867516
0.00580502
0.003984
0.00281028
0.00204259
0.00153351
0.00119149
0.000958828
0.00079857
0.000686699
0.000607425
0.000550185
0.000507512
0.000473876
0.000446547
0.000425523
0.000408645
0.300973
0.156939
0.0861264
0.0497238
0.0299516
0.0186091
0.0118582
0.00773604
0.00516841
0.00354197
0.00249611
0.00181424
0.00136403
0.00106331
0.00086029
0.000721785
0.000626214
0.000559379
0.000511798
0.000476837
0.000449701
0.000428011
0.000411596
0.000399107
0.283056
0.145383
0.0789974
0.0452961
0.0271924
0.0168564
0.0107195
0.00697861
0.0046527
0.00318267
0.00224015
0.00162802
0.00122588
0.000959062
0.000780475
0.000659952
0.000577861
0.000521282
0.000481614
0.000452923
0.000431027
0.000413821
0.000401007
0.000391801
0.271075
0.136904
0.0735613
0.0418442
0.025017
0.0154645
0.00980978
0.00637042
0.00423674
0.00289183
0.00203245
0.00147673
0.00111372
0.000874609
0.000716085
0.000610369
0.000539371
0.000491195
0.000457968
0.000434351
0.00041668
0.000403065
0.000393094
0.000386337
0.264306
0.130953
0.0694906
0.0391866
0.0233197
0.0143704
0.00909048
0.00588681
0.00390428
0.00265835
0.00186517
0.00135467
0.00102319
0.000806568
0.000664406
0.000570802
0.000508874
0.00046754
0.000439523
0.000419992
0.000405723
0.000395009
0.000387318
0.000382384
0.262493
0.127169
0.0665482
0.0371962
0.0220237
0.0135283
0.00853297
0.00550927
0.00364291
0.00247366
0.00173218
0.00125728
0.000950842
0.000752204
0.000623218
0.000539415
0.000484838
0.000449034
0.000425206
0.000408942
0.000397394
0.000389025
0.000383207
0.000379638
0.265883
0.125331
0.0645633
0.0357825
0.0210753
0.0129058
0.00811672
0.00522424
0.00344341
0.00233128
0.0016288
0.00118108
0.000893969
0.000709362
0.000590752
0.000514729
0.000466017
0.000434634
0.000414153
0.000400488
0.000391083
0.000384565
0.000380313
0.000377762
0.275408
0.125335
0.0634308
0.0348694
0.0204395
0.0124819
0.00782787
0.00502223
0.00329913
0.00222646
0.00155154
0.00112344
0.000850541
0.000676419
0.00056568
0.000495631
0.000451471
0.000423552
0.000405721
0.000394132
0.000386434
0.000381338
0.000378224
0.000376471
0.293047
0.126933
0.0630698
0.0344184
0.0200992
0.0122452
0.00765822
0.00489716
0.00320561
0.00215592
0.00149796
0.00108249
0.000819098
0.000652219
0.000547059
0.000481344
0.000440551
0.00041524
0.000399433
0.000389458
0.000383102
0.000379113
0.00037683
0.000375684
0.322414
0.130212
0.063384
0.0344166
0.0200542
0.0121934
0.00760436
0.00484574
0.0031602
0.00211767
0.00146649
0.00105698
0.000798641
0.000635949
0.000534222
0.000471309
0.000432784
0.000409287
0.000394929
0.000386131
0.000380769
0.000377617
0.000376003
0.000375264
0.368774
0.13456
0.0643461
0.0348908
0.0203173
0.0123226
0.00765849
0.00486421
0.00316156
0.00211086
0.00145633
0.00104622
0.000788549
0.000627086
0.000526713
0.000465123
0.000427815
0.000405388
0.000391941
0.000383917
0.000379224
0.0003767
0.000375524
0.000375074
0.423877
0.138813
0.0660416
0.0359151
0.0209235
0.0126616
0.00784297
0.00496052
0.00320898
0.00213278
0.00146583
0.00104945
0.000788568
0.000625399
0.000524312
0.00046258
0.000425445
0.000403359
0.000390304
0.000382671
0.000378362
0.000376215
0.000375291
0.000375009
2.59195
3.82674
5.66913
5.1586
4.21843
3.36072
1.01193
2.79117
3.39747
2.778
1.94164
1.08958
0.273176
2.39372
2.54874
1.85908
1.19952
0.661822
1.35679
2.23418
2.13748
1.46283
0.928959
0.545587
1.78129
2.12429
1.88812
1.26947
0.820272
0.514569
2.1626
2.03334
1.72919
1.17551
0.783909
0.518441
2.48582
1.95533
1.62917
1.13818
0.787078
0.543703
2.74732
1.90129
1.57085
1.13748
0.816169
0.586073
2.94859
1.86823
1.54403
1.16102
0.867254
0.643963
3.09321
1.85247
1.54285
1.20713
0.937119
0.718163
3.18502
1.85151
1.56025
1.27145
1.02548
0.810715
3.22694
1.86448
1.59794
1.35279
1.13316
0.924634
3.22549
1.89246
1.65233
1.45056
1.26154
1.06374
3.20908
1.94008
1.72188
1.5643
1.41217
1.23252
3.16999
2.00216
1.80446
1.69292
1.58609
1.43576
3.10035
2.07144
1.89669
1.83401
1.78285
1.67775
2.99199
2.13782
1.99362
1.98314
1.99919
1.96043
2.83571
2.18754
2.08912
2.13189
2.23281
2.28641
2.62028
2.20279
2.17343
2.27421
2.47315
2.66661
2.33157
2.17834
2.23434
2.41175
2.71061
3.11496
1.95664
2.09596
2.28836
2.55565
2.94643
3.68449
1.49318
1.9836
2.39915
2.76874
3.25048
4.60731
1.09715
2.07612
2.82226
3.32348
3.88696
6.62746
3.006
3.88995
5.33814
5.95348
6.14765
6.19939
0.41165
0.140447
0.0684792
0.0375411
0.0218961
0.0132128
0.00815462
0.00513765
0.00331052
0.00219125
0.00149921
0.00106818
0.000798788
0.000630744
0.000526849
0.000463557
0.000425624
0.000403168
0.000390012
0.000382417
0.000378211
0.000376138
0.000375261
0.000375004
0.329002
0.140458
0.0718904
0.0398518
0.0232643
0.0139928
0.00860358
0.00540011
0.00346635
0.00228506
0.00155635
0.00110339
0.000820635
0.000644284
0.000535137
0.000468526
0.000428545
0.000404893
0.000391057
0.000383079
0.000378628
0.000376395
0.000375407
0.000375057
0.295053
0.144073
0.0766186
0.042946
0.025057
0.0150217
0.0092039
0.00575724
0.00368276
0.0024185
0.00164
0.00115664
0.000854929
0.000666505
0.000549525
0.000477796
0.000434511
0.00040877
0.000393632
0.000384823
0.00037979
0.000377089
0.000375791
0.000375225
0.288057
0.151855
0.0829211
0.0468665
0.0273161
0.0163291
0.00997555
0.0062223
0.00396862
0.00259752
0.00175414
0.00123064
0.000903589
0.000698809
0.000571053
0.000492142
0.000444079
0.0004152
0.000398014
0.000387838
0.000381825
0.000378336
0.000376509
0.000375618
0.296222
0.163958
0.0911157
0.0517209
0.0301131
0.0179602
0.0109472
0.00681377
0.00433604
0.00283019
0.00190423
0.00132917
0.000969276
0.000743116
0.000601142
0.000512626
0.000458049
0.000424779
0.000404647
0.000392452
0.000384975
0.000380386
0.000377768
0.000376358
0.316624
0.180421
0.101404
0.0577029
0.0335621
0.0199816
0.0121592
0.00755695
0.00480136
0.00312733
0.00209759
0.00145728
0.00105555
0.000801994
0.000641682
0.000540668
0.000477496
0.000438326
0.000414155
0.000399157
0.000389642
0.000383516
0.000379761
0.000377591
0.346504
0.201621
0.114259
0.0651127
0.0378301
0.0224879
0.0136671
0.00848592
0.00538633
0.00350325
0.0023439
0.00162166
0.00116714
0.000878848
0.00069519
0.00057817
0.000503884
0.000456972
0.000427419
0.000408639
0.000396343
0.000388067
0.000382648
0.000379415
0.385992
0.228541
0.130415
0.0743801
0.0431528
0.0256095
0.0155463
0.00964631
0.00611974
0.00397683
0.00265588
0.00183113
0.00131029
0.000978232
0.000765059
0.000627725
0.000539229
0.000482296
0.000445656
0.000421794
0.000405689
0.000394449
0.000386857
0.00038212
0.436463
0.262715
0.150917
0.0861061
0.0498572
0.0295259
0.017899
0.0110991
0.00703966
0.00457281
0.00305024
0.00209729
0.0014933
0.0011062
0.000855823
0.000692808
0.000586245
0.000516426
0.00047051
0.000439869
0.000418618
0.000403393
0.000392916
0.000386061
0.500256
0.306306
0.177219
0.101131
0.0583996
0.034485
0.0208641
0.0129258
0.0081965
0.00532375
0.00354881
0.0024353
0.00172698
0.00127068
0.000973431
0.000777975
0.000648478
0.00056215
0.000504179
0.000464576
0.000436436
0.000415843
0.000401444
0.000391575
0.580655
0.362268
0.211345
0.120637
0.0694225
0.0408322
0.0246328
0.0152372
0.00965743
0.00627251
0.00418016
0.00286493
0.00202544
0.00148201
0.00112563
0.000889148
0.000730546
0.000623124
0.000549572
0.000498211
0.000460893
0.000433039
0.000413236
0.000399076
0.681983
0.434579
0.256108
0.146303
0.0838418
0.0490563
0.029471
0.0181841
0.0115127
0.00747588
0.00498175
0.0034119
0.00240698
0.00175358
0.00132247
0.00103404
0.00083848
0.000704143
0.000610537
0.00054384
0.000494353
0.00045667
0.000429371
0.000409092
0.809749
0.528531
0.315411
0.180523
0.102978
0.0598579
0.0357546
0.0219762
0.0138852
0.00900977
0.00600291
0.00410976
0.00289534
0.00210276
0.001577
0.00122268
0.000980149
0.000811485
0.000692137
0.000605536
0.000540001
0.000489059
0.000451346
0.000422317
0.970784
0.651052
0.39462
0.226715
0.128748
0.0742546
0.0440228
0.0269083
0.0169442
0.0109768
0.00730924
0.00500255
0.00352137
0.00255198
0.00190605
0.00146805
0.00116577
0.000953339
0.000801005
0.00068867
0.000602093
0.000533371
0.000481227
0.000439681
1.17332
0.810993
0.50097
0.289707
0.163941
0.093738
0.05506
0.0334024
0.0209271
0.0135177
0.00898893
0.00614848
0.00432535
0.0031303
0.00233135
0.00178688
0.00140857
0.00114033
0.000945792
0.000800299
0.000686279
0.000593876
0.000521853
0.00046244
1.42712
1.01925
0.643895
0.376183
0.212582
0.120504
0.0700207
0.0420719
0.026172
0.0168289
0.0111624
0.00762547
0.00536034
0.00387553
0.00288095
0.00220069
0.00172552
0.00138618
0.00113773
0.000949656
0.000800029
0.000676301
0.000577093
0.000492274
1.74373
1.2888
0.835072
0.49503
0.280363
0.157768
0.0906148
0.0538192
0.033169
0.0211888
0.0139967
0.00953948
0.00669712
0.00483731
0.00359122
0.0027372
0.00213844
0.0017085
0.00139133
0.00114877
0.000953194
0.000788317
0.0006522
0.000531381
2.12826
1.63576
1.08808
0.657391
0.37503
0.210161
0.119371
0.0699852
0.0426386
0.0270002
0.0177285
0.0120373
0.00843181
0.00608182
0.0045099
0.00343231
0.00267537
0.0021299
0.00172524
0.00141324
0.00115876
0.000940246
0.000754349
0.000582577
2.58227
2.07538
1.41676
0.875945
0.506474
0.284118
0.159979
0.0925634
0.0556517
0.0348541
0.0226993
0.0153267
0.0106977
0.00769914
0.00570088
0.00433341
0.00337289
0.00267961
0.00216354
0.00176335
0.00143389
0.00114611
0.000893542
0.000649424
3.11914
2.61747
1.83161
1.16274
0.686001
0.388014
0.217646
0.124487
0.0738046
0.0456288
0.0294098
0.0197075
0.0136839
0.00981499
0.00725198
0.00550473
0.00427999
0.00339647
0.00273803
0.00222584
0.00180153
0.00142539
0.00108429
0.000736566
3.78541
3.26508
2.33589
1.5255
0.92423
0.53161
0.299285
0.169944
0.0994572
0.060635
0.0386042
0.02562
0.0176647
0.0126093
0.00928765
0.0070367
0.00546542
0.00433484
0.00349318
0.00283816
0.00229413
0.00180664
0.00134941
0.000851002
4.6968
4.03837
2.92565
1.96374
1.22751
0.724231
0.413132
0.234583
0.136007
0.0818147
0.0513932
0.0337188
0.0230439
0.0163452
0.0119891
0.00906142
0.00703082
0.00557684
0.00449809
0.00366027
0.00296527
0.00233933
0.00173209
0.00101049
6.36363
4.96852
3.60217
2.47074
1.59529
0.971966
0.567422
0.325314
0.188097
0.111978
0.0694226
0.0449795
0.0304215
0.0214112
0.0156237
0.0117754
0.00913103
0.00725348
0.0058713
0.00480617
0.00393039
0.00314398
0.00235575
0.001353
9.4662
6.7515
4.49439
3.06083
2.02565
1.27663
0.768575
0.449497
0.261573
0.155008
0.0950787
0.0608428
0.0406852
0.0283778
0.0205798
0.0154616
0.0119897
0.00955896
0.00780157
0.00648382
0.00544747
0.00458596
0.00389803
0.00366949
2.59932
3.63606
4.35861
4.19761
3.4032
3.0503
1.03224
1.71383
2.16032
2.23133
2.05003
2.31892
0.269232
1.47128
1.81297
1.863
1.81675
2.06017
1.29656
1.53722
1.74968
1.7858
1.77559
1.97912
1.67986
1.63756
1.75956
1.78921
1.80196
1.97517
1.9963
1.72833
1.79828
1.82746
1.85842
2.01685
2.25455
1.79923
1.8413
1.87644
1.92426
2.07833
2.46335
1.84922
1.87999
1.92528
1.98842
2.14303
2.62894
1.88016
1.91204
1.96902
2.04463
2.20034
2.75594
1.89691
1.93788
2.00575
2.08927
2.24352
2.84902
1.90522
1.95895
2.03543
2.12065
2.26726
2.91001
1.90921
1.97701
2.05933
2.13964
2.27126
2.92157
1.90842
1.99403
2.07974
2.14913
2.25951
2.88634
1.90267
2.01236
2.09969
2.15319
2.2349
2.79819
1.89295
2.03456
2.12283
2.15726
2.20309
2.65766
1.88045
2.06279
2.1541
2.16796
2.17084
2.46622
1.86596
2.09868
2.19982
2.19391
2.14715
2.22709
1.84956
2.14511
2.26801
2.24874
2.13885
1.94153
1.83149
2.20533
2.36821
2.35011
2.15956
1.61373
1.81321
2.28231
2.51573
2.52312
2.25015
1.25401
1.79911
2.37942
2.74032
2.81844
2.48812
0.264622
1.80415
2.52033
3.09846
3.34138
3.0558
1.01262
1.9966
2.85463
3.76028
4.35839
4.52781
2.4401
3.31104
4.40756
5.60929
6.23947
6.20203
8.74128
7.33025
5.21486
3.64899
2.49126
1.62989
1.01822
0.613259
0.36293
0.215903
0.131683
0.0833896
0.0551286
0.0380672
0.0274003
0.020497
0.0158857
0.0127205
0.0105046
0.00894187
0.00785369
0.00714883
0.00688489
0.00730186
7.04509
7.01323
5.77486
4.18178
2.95628
2.01414
1.31137
0.819463
0.498133
0.300442
0.183573
0.115517
0.0755994
0.0516498
0.0368364
0.027374
0.0211498
0.0169666
0.0141395
0.0122766
0.0111543
0.0106662
0.0108285
0.0116526
4.80952
6.59749
5.88626
4.5295
3.35756
2.39444
1.63239
1.06476
0.670574
0.414221
0.255892
0.161044
0.104669
0.0707915
0.0499598
0.0367894
0.028246
0.0226166
0.0189315
0.0166385
0.015416
0.0150862
0.015548
0.0166798
3.45566
6.25677
5.84843
4.75769
3.6736
2.74104
1.9599
1.33916
0.879225
0.561133
0.353883
0.224589
0.145754
0.09782
0.0683054
0.0497504
0.037842
0.0301201
0.0251838
0.0222238
0.0207507
0.020467
0.0211241
0.0225076
2.93706
5.65535
5.71772
4.97152
3.91899
3.03439
2.26903
1.62552
1.11667
0.74124
0.481472
0.310971
0.203026
0.135842
0.0940282
0.0677081
0.0509075
0.0401235
0.0333222
0.0293044
0.0273247
0.0269176
0.0276681
0.0292548
2.71873
4.87743
5.63432
5.13432
4.10143
3.26383
2.53896
1.9033
1.36946
0.949283
0.63949
0.424029
0.280922
0.188681
0.130013
0.0927031
0.0688419
0.0535704
0.0439731
0.0382879
0.0354004
0.0346118
0.0353287
0.0370492
2.62255
4.21752
5.48834
5.23886
4.33972
3.46169
2.76262
2.1529
1.61918
1.17357
0.823603
0.564728
0.382976
0.260385
0.179792
0.127455
0.0936058
0.0718222
0.0580579
0.0497857
0.045378
0.0438114
0.0443126
0.0460484
2.58488
3.76514
5.19673
5.25186
4.6532
3.67801
2.95569
2.36632
1.84907
1.39864
1.02409
0.729587
0.510203
0.354184
0.247083
0.175268
0.127796
0.0967818
0.0769098
0.0647018
0.0578557
0.0548993
0.0549072
0.0564579
2.57567
3.48451
4.78773
5.23247
4.89859
3.97187
3.15485
2.55053
2.04913
1.60888
1.22709
0.909914
0.659416
0.470895
0.334753
0.239551
0.174528
0.130955
0.102394
0.0843506
0.0737332
0.0684859
0.0673587
0.068626
2.5754
3.307
4.39772
5.12015
5.01854
4.3446
3.41447
2.73755
2.2251
1.79525
1.4188
1.09342
0.822743
0.607431
0.44332
0.322788
0.236922
0.1773
0.136951
0.110566
0.0942943
0.0854075
0.0822327
0.0829139
2.56705
3.18165
4.0825
4.88993
5.02246
4.66598
3.76646
2.97094
2.40066
1.9614
1.59113
1.26811
0.989326
0.756552
0.569606
0.42506
0.317013
0.238634
0.18339
0.145739
0.12134
0.106922
0.10034
0.0998466
2.54118
3.07453
3.83328
4.61091
4.96474
4.81627
4.17212
3.29365
2.62043
2.13097
1.74937
1.42793
1.14877
0.908703
0.70708
0.543239
0.414555
0.316621
0.244296
0.192598
0.157237
0.13483
0.122986
0.120109
2.49544
2.96561
3.62235
4.33665
4.82398
4.84358
4.50002
3.68957
2.92448
2.34623
1.91781
1.58122
1.29893
1.05528
0.846999
0.671273
0.526495
0.410827
0.321116
0.25363
0.204748
0.171495
0.151831
0.144846
2.43156
2.84539
3.42546
4.07661
4.61138
4.80365
4.65109
4.09316
3.31836
2.65188
2.14185
1.75688
1.45315
1.20071
0.985243
0.80187
0.646868
0.517779
0.412916
0.329953
0.266309
0.219744
0.189224
0.175613
2.35382
2.71131
3.22712
3.82148
4.36272
4.68313
4.67743
4.38229
3.73385
3.05131
2.4653
2.0043
1.64751
1.36424
1.13221
0.937784
0.773046
0.633615
0.516799
0.420546
0.342905
0.282197
0.238125
0.214556
2.26799
2.56512
3.02009
3.56044
4.08683
4.4754
4.61399
4.49365
4.08265
3.48286
2.88468
2.36101
1.93296
1.59172
1.31922
1.09814
0.915424
0.762323
0.633363
0.525018
0.434784
0.360733
0.302017
0.26468
2.18086
2.41108
2.80357
3.28746
3.78353
4.19937
4.44364
4.45969
4.26636
3.83715
3.31925
2.79945
2.32784
1.92586
1.59477
1.32558
1.10633
0.926175
0.776679
0.651728
0.546974
0.459255
0.385988
0.331113
2.10015
2.25514
2.58153
3.00328
3.45424
3.86526
4.16405
4.29679
4.24754
4.02102
3.64585
3.20948
2.76337
2.34419
1.97207
1.65352
1.38632
1.16423
0.979999
0.826812
0.699
0.591882
0.501893
0.424977
2.03226
2.10448
2.36148
2.71561
3.10734
3.48511
3.79665
3.99276
4.05183
3.97434
3.76245
3.45463
3.09881
2.72841
2.36944
2.03836
1.74326
1.48618
1.26557
1.07783
0.918953
0.784154
0.671918
0.567551
1.98152
1.96733
2.15333
2.43805
2.76063
3.08263
3.36702
3.57995
3.69434
3.70819
3.62421
3.4457
3.20506
2.92777
2.63544
2.34505
2.06841
1.81299
1.58253
1.37759
1.19758
1.03947
0.905898
0.776401
1.95605
1.85159
1.96745
2.18755
2.43955
2.69309
2.92325
3.10819
3.22802
3.2795
3.26139
3.1768
3.03478
2.85393
2.64822
2.43046
2.21118
1.99811
1.79687
1.61097
1.44158
1.2882
1.15507
1.02528
1.96872
1.75738
1.8125
1.98044
2.17114
2.3579
2.5237
2.65527
2.7417
2.78199
2.77911
2.73148
2.64628
2.53246
2.39829
2.25134
2.0981
1.94378
1.79225
1.64656
1.50981
1.38379
1.27293
1.17604
2.03794
1.68329
1.6941
1.82841
1.97818
2.11748
2.22913
2.3035
2.34034
2.34626
2.31926
2.26477
2.18954
2.09968
2.00034
1.89581
1.78957
1.6845
1.5829
1.48641
1.39621
1.31329
1.23992
1.17861
2.10551
1.6195
1.61452
1.74187
1.88039
2.00425
2.09221
2.13662
2.14838
2.12212
2.06412
1.98408
1.89025
1.78943
1.68681
1.58612
1.48997
1.4001
1.31769
1.24367
1.1788
1.12399
1.0804
1.04827
)
;

boundaryField
{
    rotor
    {
        type            epsilonWallFunction;
        value           nonuniform List<scalar> 
144
(
1.87931
3.00026
6.03467
6.82895
6.62218
6.23215
1.87931
0.821278
0.232637
0.260374
0.28048
1.27996
1.3984
1.49231
1.55871
1.59829
1.61036
1.60134
1.57332
1.53494
1.48433
1.41998
1.33896
1.21844
0.277538
0.266971
0.251396
0.230438
0.869816
2.18822
2.18822
2.11593
1.9215
1.74057
1.45547
1.55026
2.39714
4.82276
7.08359
7.69339
7.99314
32.9158
2.39714
0.974764
0.260071
0.279981
1.24847
1.39056
1.50683
1.59252
1.64944
1.68112
1.69192
1.68746
1.67059
1.63135
1.56487
1.47184
1.35913
1.2405
0.280477
0.26895
0.251997
0.228757
0.852069
1.95634
1.95634
1.66093
2.17099
3.36771
3.63246
3.20087
2.59195
3.82674
5.66913
5.1586
4.21843
3.36072
2.59195
1.01193
0.273176
1.35679
1.78129
2.1626
2.48582
2.74732
2.94859
3.09321
3.18502
3.22694
3.22549
3.20908
3.16999
3.10035
2.99199
2.83571
2.62028
2.33157
1.95664
1.49318
1.09715
3.006
3.006
3.88995
5.33814
5.95348
6.14765
6.19939
2.59932
3.63606
4.35861
4.19761
3.4032
3.0503
2.59932
1.03224
0.269232
1.29656
1.67986
1.9963
2.25455
2.46335
2.62894
2.75594
2.84902
2.91001
2.92157
2.88634
2.79819
2.65766
2.46622
2.22709
1.94153
1.61373
1.25401
0.264622
1.01262
2.4401
2.4401
3.31104
4.40756
5.60929
6.23947
6.20203
)
;
    }
    freestream
    {
        type            inletOutlet;
        inletValue      uniform 0.000375;
        value           nonuniform List<scalar> 
96
(
0.962797
0.981213
1.15766
1.36479
1.41195
1.24731
0.72297
0.244598
0.0960047
0.0503449
0.0340068
0.0269645
0.0233413
0.0210954
0.0194829
0.0177935
0.016034
0.0142357
0.012393
0.0105439
0.00873292
0.00698699
0.00531112
0.00369211
0.00212072
0.000375
0.000375
0.000375
0.000375
0.000375
0.000375
0.000375
0.000375
0.000375
0.000375
0.000375
0.000375
0.000375
0.000375
0.000375
0.000375
0.000375
0.000375
0.000375
0.000375
0.000375
0.000375
0.000375
0.000375
0.000375
0.000375
0.000375
0.000375
0.000375
0.000375
0.000375
0.000375
0.000375
0.000375
0.000375
0.000375
0.000375
0.000375
0.000375
0.000375
0.000375
0.000375
0.000375
0.000375
0.000375
0.000375
0.00366949
0.00730186
0.0116526
0.0166798
0.0225076
0.0292548
0.0370492
0.0460484
0.0564579
0.068626
0.0829139
0.0998466
0.120109
0.144846
0.175613
0.214556
0.26468
0.331113
0.424977
0.567551
0.776401
1.02528
1.17604
1.17861
1.04827
)
;
    }
    frontAndBack
    {
        type            empty;
    }
}

