/*--------------------------------*- C++ -*----------------------------------*\
  =========                 |
  \\      /  F ield         | OpenFOAM: The Open Source CFD Toolbox
   \\    /   O peration     | Website:  https://openfoam.org
    \\  /    A nd           | Version:  11
     \\/     M anipulation  |
\*---------------------------------------------------------------------------*/
FoamFile
{
    format      ascii;
    class       volVectorField;
    location    "1.5";
    object      U;
}
// * * * * * * * * * * * * * * * * * * * * * * * * * * * * * * * * * * * * * //

dimensions      [0 1 -1 0 0 0 0];

internalField   nonuniform List<vector> 
2880
(
(-0.0487133 0.0384041 2.96398e-30)
(-0.192873 0.069954 0)
(-0.383949 0.0897657 7.58061e-21)
(-0.472287 0.0959384 -6.16632e-21)
(-0.519484 0.105832 7.27691e-20)
(-0.529189 0.117075 2.96283e-22)
(-0.106207 0.0750815 3.65484e-19)
(-0.284604 0.110096 -2.95269e-19)
(-0.42137 0.12367 -2.28371e-19)
(-0.485504 0.124714 1.86483e-19)
(-0.516624 0.123586 -7.72016e-20)
(-0.524215 0.111009 -3.17447e-20)
(-0.132426 0.097791 3.25539e-19)
(-0.303163 0.140615 8.26088e-19)
(-0.417468 0.146071 6.46896e-19)
(-0.469083 0.14194 -2.22286e-19)
(-0.49685 0.136058 3.68287e-20)
(-0.505516 0.119086 -6.10805e-20)
(-0.155996 0.117964 -1.1325e-18)
(-0.30897 0.168088 -1.47751e-21)
(-0.405617 0.167838 -4.6079e-19)
(-0.447601 0.159475 4.17116e-20)
(-0.471877 0.149005 0)
(-0.479799 0.129093 5.97265e-20)
(-0.181534 0.137269 1.19504e-18)
(-0.312949 0.191644 3.19769e-20)
(-0.391438 0.18908 2.52213e-20)
(-0.424976 0.177698 4.13222e-20)
(-0.444246 0.164293 2.73713e-19)
(-0.45001 0.142817 -5.9194e-20)
(-0.205953 0.158158 -6.83362e-19)
(-0.316138 0.21024 -4.9047e-19)
(-0.376031 0.208862 0)
(-0.401451 0.195994 6.29008e-19)
(-0.414744 0.181254 -2.67548e-19)
(-0.416675 0.159735 -1.18999e-19)
(-0.223143 0.184877 -4.68612e-20)
(-0.315388 0.225617 2.95803e-20)
(-0.359577 0.226958 -8.30565e-19)
(-0.377153 0.214083 -7.84173e-22)
(-0.383711 0.199293 6.59327e-20)
(-0.380179 0.178872 0)
(-0.233941 0.20086 0)
(-0.311106 0.238735 0)
(-0.342335 0.243525 8.13282e-19)
(-0.352333 0.23183 -1.36725e-18)
(-0.35155 0.217906 5.97328e-19)
(-0.34114 0.199233 0)
(-0.241823 0.214483 -7.0164e-20)
(-0.304228 0.25012 -2.89932e-20)
(-0.324677 0.258749 4.40849e-20)
(-0.327306 0.249078 -6.49291e-22)
(-0.318833 0.236567 1.47743e-21)
(-0.300465 0.21987 4.87916e-19)
(-0.247557 0.226159 -2.33982e-20)
(-0.295301 0.259984 -5.66851e-20)
(-0.306821 0.272838 4.37645e-20)
(-0.302422 0.265642 -3.45378e-22)
(-0.28626 0.254764 -6.68354e-19)
(-0.259325 0.239871 1.22857e-19)
(-0.250846 0.234997 0)
(-0.284818 0.268504 0)
(-0.288791 0.285938 8.91172e-20)
(-0.27807 0.281383 1.12893e-18)
(-0.254617 0.272063 -5.36462e-19)
(-0.21908 0.258435 -8.64037e-19)
(-0.251296 0.240513 1.52812e-18)
(-0.273047 0.275849 0)
(-0.270701 0.298156 8.91203e-20)
(-0.254688 0.296233 -5.25598e-19)
(-0.22472 0.288154 4.06233e-19)
(-0.181177 0.27494 3.72122e-19)
(-0.248622 0.242906 -2.46433e-20)
(-0.260082 0.282179 -8.93748e-19)
(-0.252837 0.309577 8.93438e-20)
(-0.232677 0.310192 -7.49939e-20)
(-0.197379 0.302876 1.36914e-19)
(-0.147023 0.288999 5.00546e-19)
(-0.242584 0.24249 -1.50622e-18)
(-0.24595 0.287557 8.46245e-19)
(-0.235441 0.32039 4.39504e-20)
(-0.212439 0.323311 0)
(-0.173342 0.316212 -1.3751e-19)
(-0.117866 0.300478 -5.04554e-19)
(-0.233224 0.239669 -2.34868e-20)
(-0.230756 0.29206 -5.78422e-20)
(-0.218623 0.330687 4.43219e-20)
(-0.19433 0.335681 0)
(-0.153263 0.32828 0)
(-0.094718 0.309476 -1.26189e-19)
(-0.220656 0.235101 -2.34405e-20)
(-0.214664 0.295661 -5.88209e-20)
(-0.202536 0.340504 4.48284e-20)
(-0.178622 0.347413 6.98138e-19)
(-0.137682 0.339305 -6.86072e-20)
(-0.0784831 0.316276 0)
(-0.206743 0.232901 0)
(-0.198118 0.298366 -5.9908e-20)
(-0.187347 0.349723 -6.93062e-19)
(-0.165512 0.358568 -8.06904e-20)
(-0.127027 0.349643 6.93413e-20)
(-0.070304 0.321293 0)
(-0.171502 0.239389 0)
(-0.181955 0.298812 0)
(-0.173164 0.357786 1.40993e-18)
(-0.154984 0.369031 -5.59578e-19)
(-0.12158 0.359874 1.41105e-19)
(-0.0713175 0.325267 -5.45715e-22)
(-0.147823 0.230956 -1.91875e-20)
(-0.167856 0.29303 0)
(-0.159741 0.36347 -1.15078e-18)
(-0.146718 0.378464 -3.24542e-19)
(-0.121041 0.370627 0)
(-0.0817479 0.327736 0)
(-0.130567 0.212778 9.15393e-21)
(-0.153585 0.282774 3.09961e-20)
(-0.146133 0.366149 8.10369e-19)
(-0.139986 0.386518 2.89739e-19)
(-0.124675 0.382524 3.61459e-19)
(-0.105262 0.327102 -6.52208e-20)
(-0.106389 0.191279 6.01074e-19)
(-0.136904 0.268435 -4.97734e-19)
(-0.131393 0.365749 -7.58174e-19)
(-0.134289 0.392477 -4.26601e-20)
(-0.130323 0.399037 -3.72514e-19)
(-0.139679 0.322146 1.30538e-19)
(-0.0862913 0.169884 -9.82637e-19)
(-0.118651 0.250439 5.35735e-19)
(-0.115463 0.362313 4.22822e-19)
(-0.127138 0.393138 -2.24375e-19)
(-0.133649 0.427229 3.84407e-20)
(-0.170128 0.318292 -6.39177e-20)
(-0.0672455 0.143811 3.66388e-19)
(-0.0984427 0.225757 0)
(-0.0984937 0.352965 -1.11534e-19)
(-0.11869 0.380927 1.8779e-19)
(-0.128917 0.464887 -4.23353e-20)
(-0.173243 0.317276 3.63348e-20)
(-0.0381356 0.0751191 -1.55149e-21)
(-0.0718292 0.156933 -9.16807e-21)
(-0.0752402 0.306701 1.16904e-19)
(-0.0958008 0.316981 6.09103e-21)
(-0.10552 0.479535 1.11987e-20)
(-0.152266 0.253686 -2.50866e-20)
(-0.523031 0.0723438 -6.12847e-20)
(-0.537388 0.0169895 -7.76972e-21)
(-0.545958 -0.0193796 7.61653e-31)
(-0.542305 -0.054102 -6.65249e-31)
(-0.522648 -0.0870633 -9.52052e-21)
(-0.486737 -0.115605 -4.09486e-20)
(-0.437333 -0.137421 -4.00875e-22)
(-0.378358 -0.151055 -2.39584e-20)
(-0.313494 -0.156284 -1.89737e-20)
(-0.246029 -0.153958 -7.42817e-21)
(-0.178685 -0.145607 1.50352e-31)
(-0.113045 -0.132686 1.13286e-31)
(-0.0501405 -0.116492 0)
(0.00939834 -0.0981088 3.49246e-21)
(0.0652573 -0.0784248 -5.7489e-21)
(0.117324 -0.0581157 -1.05048e-21)
(0.165586 -0.0377082 5.21451e-22)
(0.210126 -0.0176016 3.81487e-22)
(0.251136 0.00200438 5.79879e-22)
(0.28851 0.0204657 -3.76041e-33)
(0.322161 0.0372098 -2.22302e-23)
(0.352101 0.0515627 2.14472e-23)
(0.379233 0.0627139 -4.00811e-22)
(0.406971 0.0702969 3.90587e-22)
(-0.521421 0.0703492 1.12442e-19)
(-0.534745 0.0239039 -1.7666e-19)
(-0.541977 -0.0167643 1.68984e-19)
(-0.53652 -0.0601539 -1.40826e-21)
(-0.513688 -0.104854 -1.0691e-19)
(-0.473057 -0.146668 -3.69946e-20)
(-0.417533 -0.180973 -2.99486e-20)
(-0.352152 -0.204967 2.23934e-20)
(-0.281747 -0.217959 -1.80065e-20)
(-0.210251 -0.220686 -5.09945e-20)
(-0.14063 -0.215198 -1.50371e-20)
(-0.0745608 -0.203508 1.68678e-20)
(-0.0128717 -0.187363 0)
(0.044102 -0.1682 -6.96793e-21)
(0.0963805 -0.147122 3.70209e-21)
(0.144177 -0.124983 -6.14449e-21)
(0.187755 -0.102437 1.33208e-21)
(0.227407 -0.0799632 -3.3321e-21)
(0.263431 -0.0579218 0)
(0.296059 -0.0365744 3.74704e-22)
(0.325374 -0.0161766 5.82656e-22)
(0.351531 0.00296148 -1.26303e-21)
(0.375933 0.0202536 1.22031e-21)
(0.402117 0.0337618 6.28039e-22)
(-0.507665 0.0772879 -2.31732e-19)
(-0.520545 0.0331418 1.61862e-19)
(-0.526025 -0.0115504 -2.30978e-19)
(-0.517438 -0.0635326 5.23909e-20)
(-0.488922 -0.120791 4.43268e-20)
(-0.439568 -0.176938 1.11197e-19)
(-0.372929 -0.224586 -6.4199e-20)
(-0.295778 -0.258895 9.65689e-20)
(-0.214765 -0.278746 3.26343e-21)
(-0.134845 -0.285137 5.79539e-20)
(-0.059303 -0.280679 2.01488e-20)
(0.0101377 -0.268215 -3.35978e-21)
(0.0729813 -0.250209 -2.35234e-20)
(0.129353 -0.228621 1.96427e-20)
(0.179756 -0.204865 5.54879e-21)
(0.22482 -0.179984 2.27352e-21)
(0.265181 -0.154718 1.51348e-21)
(0.301435 -0.12957 6.11294e-22)
(0.334111 -0.10488 -1.08699e-21)
(0.363637 -0.0808949 2.48055e-21)
(0.390322 -0.0578083 -3.33364e-21)
(0.414657 -0.0358333 -3.23177e-21)
(0.438139 -0.0155124 3.12065e-21)
(0.463444 0.000286424 -6.26667e-22)
(-0.484586 0.0893308 2.6806e-19)
(-0.495654 0.0462438 2.77198e-19)
(-0.497787 -0.00226175 0)
(-0.483763 -0.0629059 0)
(-0.445968 -0.133508 -9.01042e-20)
(-0.382654 -0.205327 9.11107e-21)
(-0.298611 -0.267391 1.34803e-19)
(-0.203506 -0.311969 -4.31591e-20)
(-0.106555 -0.337373 0)
(-0.0142837 -0.345231 -5.65928e-20)
(0.0696179 -0.339259 0)
(0.143936 -0.32359 2.84906e-20)
(0.208867 -0.301643 0)
(0.26528 -0.275956 -1.2622e-21)
(0.314347 -0.248274 -7.77592e-21)
(0.357262 -0.219805 4.20507e-21)
(0.395121 -0.191341 4.4016e-22)
(0.428891 -0.163375 -2.69571e-21)
(0.459392 -0.136198 3.27613e-21)
(0.487313 -0.109989 -4.5001e-21)
(0.513195 -0.0848476 1.80266e-21)
(0.537719 -0.0608661 0)
(0.561811 -0.0383785 1.83842e-21)
(0.588355 -0.0200635 -1.11217e-21)
(-0.453785 0.105725 -3.18751e-19)
(-0.460445 0.0636641 -5.68109e-19)
(-0.456493 0.0120895 1.27789e-19)
(-0.433506 -0.0568497 -1.17406e-19)
(-0.38138 -0.141344 2.09625e-19)
(-0.297241 -0.23006 0)
(-0.188313 -0.307278 0)
(-0.0692026 -0.361029 1.35556e-20)
(0.0471979 -0.38908 1.61107e-19)
(0.153009 -0.395009 -6.77927e-20)
(0.245183 -0.384529 7.01274e-20)
(0.323686 -0.363078 -9.35574e-20)
(0.389734 -0.335156 0)
(0.445198 -0.304004 -4.81791e-21)
(0.49207 -0.271649 -1.64918e-20)
(0.532193 -0.239353 0)
(0.56715 -0.207904 0)
(0.598246 -0.17772 0)
(0.626534 -0.149014 -2.51808e-21)
(0.652915 -0.121898 -1.1363e-20)
(0.67801 -0.0964066 1.34772e-20)
(0.702822 -0.0725121 -1.18526e-20)
(0.727274 -0.0499775 7.01399e-21)
(0.75719 -0.0291249 2.52606e-21)
(-0.416181 0.125673 4.00636e-19)
(-0.415019 0.0853265 2.91182e-19)
(-0.40115 0.0320023 5.53838e-19)
(-0.364244 -0.0441963 -5.07987e-19)
(-0.290746 -0.142433 -6.65052e-19)
(-0.176764 -0.248472 0)
(-0.0347733 -0.340363 3.09339e-19)
(0.112676 -0.400946 -3.48647e-19)
(0.249216 -0.428058 0)
(0.367257 -0.428739 5.96695e-20)
(0.464881 -0.410769 -1.56201e-19)
(0.543901 -0.381306 9.4916e-20)
(0.607248 -0.345977 3.59051e-20)
(0.658246 -0.30857 1.07432e-20)
(0.699902 -0.271331 -3.94076e-21)
(0.734784 -0.235486 -1.11254e-20)
(0.764926 -0.201657 2.5488e-22)
(0.791854 -0.17007 3.08466e-21)
(0.816732 -0.140792 -1.40664e-20)
(0.840574 -0.113848 1.14044e-20)
(0.863724 -0.0892665 -6.52324e-21)
(0.888089 -0.0667425 1.43576e-20)
(0.910472 -0.0461883 7.90473e-21)
(0.945897 -0.0230973 -9.05357e-21)
(-0.3725 0.148254 0)
(-0.359677 0.110598 0)
(-0.331098 0.0572371 -5.606e-19)
(-0.273648 -0.0245489 5.14529e-19)
(-0.168977 -0.135418 -2.66638e-20)
(-0.0133667 -0.257708 0)
(0.170361 -0.362024 -4.61083e-19)
(0.349307 -0.425629 3.77842e-19)
(0.503859 -0.448286 -1.87273e-19)
(0.627577 -0.441177 0)
(0.722611 -0.414043 -5.62051e-21)
(0.793855 -0.375724 0)
(0.847013 -0.333021 -3.6438e-20)
(0.887292 -0.290076 -4.26689e-20)
(0.918741 -0.249147 2.79281e-20)
(0.944718 -0.211236 1.15632e-20)
(0.967347 -0.176736 -2.58547e-22)
(0.988422 -0.14553 -2.25205e-21)
(1.00894 -0.11737 2.01253e-21)
(1.02952 -0.0920941 -6.32271e-21)
(1.0498 -0.0700787 -5.7766e-23)
(1.07341 -0.0498555 -4.08804e-21)
(1.08987 -0.0342361 3.4432e-21)
(1.13196 -0.0113392 -3.16454e-21)
(-0.323706 0.172318 0)
(-0.295426 0.138188 0)
(-0.246985 0.0864825 -1.49807e-19)
(-0.161199 0.00097788 9.78185e-19)
(-0.0132423 -0.120643 -6.56749e-21)
(0.196617 -0.255272 -2.15978e-19)
(0.427106 -0.366711 0)
(0.63233 -0.429668 0)
(0.790182 -0.445235 2.16678e-19)
(0.902584 -0.429817 2.81445e-19)
(0.978975 -0.395089 1.62634e-19)
(1.02931 -0.351019 -9.18323e-20)
(1.06249 -0.304679 -4.20764e-20)
(1.08527 -0.259967 6.00821e-20)
(1.10209 -0.21885 0)
(1.11659 -0.181881 -8.71198e-21)
(1.12973 -0.149146 1.8447e-20)
(1.1418 -0.120402 -2.66651e-21)
(1.15289 -0.0953337 -1.11134e-21)
(1.16449 -0.0735042 5.13905e-21)
(1.17621 -0.0553699 2.91956e-21)
(1.1891 -0.0390461 -2.4918e-21)
(1.19727 -0.0273544 -3.41732e-21)
(1.22805 -0.00844332 5.69281e-21)
(-0.271267 0.196503 0)
(-0.224429 0.166231 1.64388e-19)
(-0.151945 0.117189 -3.06141e-19)
(-0.030803 0.0289195 1.58175e-19)
(0.172483 -0.100952 2.53884e-19)
(0.443003 -0.241181 2.07782e-19)
(0.711194 -0.351599 1.65737e-19)
(0.920168 -0.409233 -1.54397e-19)
(1.05366 -0.417102 -1.99831e-19)
(1.13232 -0.397054 0)
(1.17483 -0.361158 -1.00251e-19)
(1.19544 -0.318246 5.4597e-21)
(1.20427 -0.27484 1.29565e-20)
(1.20762 -0.233987 -6.08804e-20)
(1.20934 -0.196869 5.78233e-20)
(1.20992 -0.164023 -5.64926e-20)
(1.21068 -0.135193 2.45955e-20)
(1.21238 -0.110051 -2.9674e-21)
(1.21508 -0.0883508 -2.7924e-21)
(1.21927 -0.0698643 3.56546e-21)
(1.22411 -0.0547732 2.55653e-21)
(1.22866 -0.0418507 0)
(1.23123 -0.0320815 0)
(1.25015 -0.0136321 -3.37042e-21)
(-0.217153 0.219394 1.77077e-19)
(-0.149973 0.192617 -1.61287e-19)
(-0.0512258 0.145526 0)
(0.111145 0.0534311 7.03344e-21)
(0.379234 -0.0800678 0)
(0.704789 -0.216234 0)
(0.987622 -0.318177 1.68834e-19)
(1.16804 -0.365889 -6.914e-19)
(1.25623 -0.368006 5.02525e-20)
(1.29345 -0.348664 2.15208e-20)
(1.30221 -0.317161 1.10692e-19)
(1.29648 -0.280181 -8.07612e-20)
(1.28534 -0.243894 5.89281e-20)
(1.27371 -0.210319 7.19412e-20)
(1.26357 -0.179916 -6.8274e-20)
(1.25561 -0.152707 1.79902e-20)
(1.24992 -0.128677 2.31696e-20)
(1.24623 -0.107719 -2.21302e-20)
(1.24411 -0.0895915 1.80307e-21)
(1.24285 -0.0739241 -7.47174e-21)
(1.24177 -0.0607998 -3.34796e-22)
(1.23994 -0.0497358 0)
(1.23819 -0.0399018 0)
(1.24797 -0.0219365 0)
(-0.163625 0.239694 9.24305e-20)
(-0.0759825 0.215138 -1.62665e-19)
(0.0490946 0.167519 0)
(0.261059 0.0709398 -8.94285e-19)
(0.601089 -0.0591669 2.72868e-19)
(0.963441 -0.180496 0)
(1.2286 -0.267135 0)
(1.35817 -0.30581 2.80518e-19)
(1.39864 -0.304378 0)
(1.40286 -0.288077 1.5065e-19)
(1.38761 -0.264637 -1.09547e-19)
(1.3635 -0.235351 -1.6922e-21)
(1.33977 -0.20732 -5.8516e-20)
(1.3189 -0.181603 0)
(1.30158 -0.158384 5.63955e-20)
(1.28766 -0.137536 -5.36183e-20)
(1.27665 -0.118925 -2.74796e-20)
(1.2679 -0.102469 8.2952e-21)
(1.26085 -0.0880149 3.36167e-20)
(1.25422 -0.0751289 -3.98425e-21)
(1.24749 -0.063423 -9.86496e-21)
(1.24133 -0.0537115 6.80096e-22)
(1.23535 -0.0448025 0)
(1.23058 -0.025493 0)
(-0.113013 0.256391 8.6659e-20)
(-0.00606862 0.231976 0)
(0.145893 0.180381 3.20158e-19)
(0.422266 0.0829329 -2.94225e-19)
(0.834174 -0.03307 0)
(1.20262 -0.134006 2.06874e-19)
(1.41695 -0.202994 -1.91195e-19)
(1.48753 -0.235496 0)
(1.48924 -0.233926 -1.74109e-19)
(1.47383 -0.226573 1.61755e-19)
(1.43992 -0.209401 0)
(1.40456 -0.189227 8.11962e-20)
(1.37425 -0.169331 0)
(1.34887 -0.150673 0)
(1.32785 -0.133546 -5.82676e-20)
(1.3104 -0.118014 1.36248e-20)
(1.29571 -0.104044 3.96844e-20)
(1.28301 -0.0915555 1.89135e-20)
(1.27158 -0.0804254 -7.00754e-21)
(1.2607 -0.0704901 -6.91374e-21)
(1.24962 -0.0616343 -8.25136e-22)
(1.23804 -0.0532696 7.87442e-22)
(1.22484 -0.0429131 1.76787e-20)
(1.20858 -0.022772 -1.73061e-20)
(-0.0674259 0.268925 -8.68526e-20)
(0.0566984 0.241609 1.68792e-19)
(0.242197 0.182931 -7.75398e-19)
(0.607673 0.0935036 2.84755e-19)
(1.07002 0.00529468 -2.60876e-19)
(1.40073 -0.0755202 -1.95337e-19)
(1.54291 -0.13256 4.80047e-19)
(1.56159 -0.162408 -2.69314e-19)
(1.54617 -0.168472 3.36536e-19)
(1.50843 -0.165341 -1.55432e-19)
(1.46383 -0.156461 0)
(1.42527 -0.145274 7.54193e-20)
(1.39284 -0.133159 0)
(1.36562 -0.121003 0)
(1.34265 -0.109289 5.62081e-20)
(1.32303 -0.0982661 -5.32732e-20)
(1.3059 -0.088064 0)
(1.29046 -0.0787025 -1.74934e-20)
(1.27596 -0.0701045 7.03239e-21)
(1.26163 -0.0621345 1.794e-20)
(1.24658 -0.0546516 -2.33966e-21)
(1.22985 -0.0469302 -3.77843e-21)
(1.21085 -0.0357799 2.22762e-20)
(1.18695 -0.0155267 -2.60163e-20)
(-0.0285369 0.277149 8.6913e-20)
(0.111142 0.242151 0)
(0.350497 0.178815 6.2678e-19)
(0.824133 0.116319 0)
(1.28738 0.0548482 -2.2757e-19)
(1.54022 -0.0104048 3.88848e-19)
(1.61271 -0.0621828 -1.65183e-19)
(1.60377 -0.091333 -4.20645e-19)
(1.56629 -0.103966 1.28254e-20)
(1.51775 -0.108559 -1.21885e-19)
(1.47381 -0.107555 -9.14574e-20)
(1.43565 -0.103277 -1.42961e-19)
(1.40305 -0.0973684 -9.59988e-20)
(1.37514 -0.0907516 9.05335e-20)
(1.35099 -0.0839117 -5.06323e-20)
(1.32975 -0.0771098 1.27497e-20)
(1.31062 -0.0704845 5.6495e-20)
(1.29283 -0.0640816 -8.37489e-21)
(1.27567 -0.0578604 -1.01011e-20)
(1.25832 -0.0517261 -7.67102e-21)
(1.23988 -0.045515 1.03115e-20)
(1.2193 -0.0382791 -5.05915e-21)
(1.19595 -0.0266077 0)
(1.1669 -0.00666383 0)
(0.00254602 0.280951 -9.02048e-20)
(0.161048 0.232947 -3.20162e-19)
(0.49359 0.178179 4.35702e-19)
(1.056 0.160666 0)
(1.45847 0.113569 0)
(1.61962 0.0544035 -4.98014e-19)
(1.64255 0.00416203 2.55446e-20)
(1.61316 -0.0262358 7.01375e-19)
(1.56475 -0.0457257 -2.6796e-20)
(1.51779 -0.056242 -9.01689e-20)
(1.47534 -0.0612899 1.86554e-19)
(1.43824 -0.0629017 6.74823e-20)
(1.40614 -0.0623297 -8.38942e-20)
(1.3782 -0.0604225 1.86459e-20)
(1.35355 -0.0577217 1.49259e-20)
(1.33137 -0.054549 5.40892e-20)
(1.31089 -0.0510756 0)
(1.29141 -0.0473587 -1.13511e-20)
(1.27225 -0.0433653 9.7576e-21)
(1.25265 -0.0390016 3.31534e-21)
(1.23162 -0.0340751 0)
(1.20811 -0.0275126 2.49403e-21)
(1.18167 -0.0159423 0)
(1.14934 0.00315202 0)
(0.0254241 0.279284 0)
(0.222167 0.216548 8.11835e-19)
(0.690455 0.206078 -8.74055e-19)
(1.26826 0.218768 1.27378e-19)
(1.56669 0.175221 -1.88311e-19)
(1.65312 0.115524 2.09123e-19)
(1.64483 0.0666014 0)
(1.60224 0.030995 -1.891e-19)
(1.55473 0.00757385 -2.64557e-19)
(1.50964 -0.00806377 1.05947e-19)
(1.46932 -0.0184585 -6.74154e-20)
(1.43392 -0.0251549 4.80761e-20)
(1.40289 -0.0292388 -8.00875e-20)
(1.37544 -0.0314867 -4.76298e-20)
(1.3508 -0.0324293 2.94015e-20)
(1.32822 -0.0324106 -3.22238e-20)
(1.307 -0.0316356 2.08623e-20)
(1.2865 -0.0301976 3.21613e-21)
(1.26606 -0.0280986 -6.01629e-21)
(1.24494 -0.0252763 1.38602e-20)
(1.22211 -0.0215592 -1.03136e-20)
(1.19657 -0.0158569 -1.71314e-20)
(1.16801 -0.00487074 0)
(1.13346 0.0129304 -1.06334e-20)
(0.0401408 0.268998 -6.90727e-19)
(0.309862 0.202595 0)
(0.931674 0.271059 0)
(1.42803 0.283711 0)
(1.62101 0.233464 -5.01696e-19)
(1.65515 0.172228 3.17107e-19)
(1.62742 0.121222 1.12833e-19)
(1.58309 0.0836195 0)
(1.53725 0.0560184 2.2314e-19)
(1.49504 0.0357563 -7.37683e-20)
(1.45748 0.0209123 1.88694e-19)
(1.42427 0.0100604 -3.77253e-20)
(1.39477 0.00213759 3.44154e-20)
(1.36826 -0.00362229 3.29244e-20)
(1.34407 -0.00774231 2.62993e-21)
(1.32155 -0.0105603 -2.17248e-20)
(1.30006 -0.0122785 4.84643e-21)
(1.27904 -0.0129953 2.14882e-21)
(1.25784 -0.0127297 1.3497e-20)
(1.23572 -0.0114551 -5.10931e-21)
(1.21163 -0.00903746 1.59222e-20)
(1.18469 -0.00441551 2.54727e-21)
(1.15468 0.00566306 -5.56701e-20)
(1.11873 0.0218236 8.48816e-20)
(0.053786 0.246596 6.13709e-19)
(0.443756 0.222419 0)
(1.16305 0.354264 -1.21684e-19)
(1.52603 0.347382 -2.756e-19)
(1.6351 0.286856 6.19625e-19)
(1.63602 0.22339 0)
(1.60059 0.171126 7.68816e-20)
(1.55664 0.130399 1.25373e-19)
(1.51416 0.0991761 -2.31655e-19)
(1.47565 0.0752546 0)
(1.44125 0.0568545 -5.27867e-20)
(1.41049 0.0426251 3.711e-20)
(1.38276 0.0315509 -1.53101e-20)
(1.35748 0.0228865 0)
(1.33407 0.0161071 1.02126e-21)
(1.31198 0.0108641 -6.50232e-21)
(1.29065 0.00694496 0)
(1.26953 0.00424422 5.1007e-21)
(1.24801 0.00273432 -1.75435e-20)
(1.22534 0.00241447 3.0774e-20)
(1.20052 0.00337503 -3.96043e-20)
(1.17278 0.00665871 4.68602e-20)
(1.14193 0.0155546 -3.13696e-20)
(1.10528 0.029917 -1.4895e-20)
(0.0808922 0.217588 -3.42162e-19)
(0.661479 0.312034 -2.7632e-19)
(1.32214 0.438272 0)
(1.56995 0.405769 2.17248e-19)
(1.62203 0.33565 -4.00437e-19)
(1.60463 0.269703 -8.37998e-20)
(1.56649 0.215142 -1.50878e-19)
(1.52564 0.171772 0)
(1.48742 0.137663 7.8873e-20)
(1.45283 0.110792 -1.95222e-20)
(1.42165 0.0894913 2.63185e-20)
(1.39341 0.0724759 -1.78914e-20)
(1.3676 0.0587729 1.50564e-20)
(1.34376 0.0476611 0)
(1.32139 0.0386207 4.11262e-21)
(1.30002 0.0312934 -1.08921e-21)
(1.27916 0.0254502 0)
(1.25828 0.0209685 0)
(1.23679 0.0178022 -1.22202e-20)
(1.21398 0.0159209 9.13665e-21)
(1.18889 0.0153584 -3.59857e-20)
(1.16083 0.0171556 7.42733e-20)
(1.12964 0.0246877 -3.82832e-20)
(1.09288 0.0371732 0)
(0.139904 0.189318 3.48764e-19)
(0.910397 0.441209 1.83137e-20)
(1.4281 0.517128 -9.44599e-20)
(1.57728 0.458301 1.79036e-19)
(1.59165 0.380021 1.74929e-19)
(1.56472 0.310836 1.14798e-19)
(1.52796 0.253889 -1.16828e-19)
(1.49151 0.208211 7.12285e-20)
(1.45786 0.171737 -2.79599e-20)
(1.42722 0.142487 1.77545e-20)
(1.39928 0.118849 1.12417e-20)
(1.37364 0.0995792 -6.58082e-21)
(1.34989 0.0837316 0)
(1.32765 0.0705953 -8.67502e-21)
(1.30652 0.0596486 8.52969e-22)
(1.28609 0.0505223 2.44271e-20)
(1.26593 0.0429722 -1.48073e-20)
(1.24555 0.0368609 0)
(1.2244 0.0321241 1.11143e-20)
(1.20178 0.0287 4.47908e-20)
(1.17682 0.0265749 -4.05591e-20)
(1.14887 0.0267887 0)
(1.11775 0.0328551 0)
(1.08137 0.0435184 1.20154e-20)
(0.249187 0.209098 2.65535e-19)
(1.12897 0.578366 2.72831e-20)
(1.47579 0.586835 0)
(1.55329 0.50437 1.00478e-19)
(1.5478 0.419079 -6.48649e-20)
(1.5191 0.346518 -2.24926e-20)
(1.48642 0.287393 7.4304e-20)
(1.45509 0.239808 1.08843e-20)
(1.42611 0.20145 1.654e-20)
(1.39943 0.170328 -8.55607e-21)
(1.37475 0.144856 0)
(1.35177 0.123813 0)
(1.33017 0.106266 8.05957e-21)
(1.30966 0.0915039 -9.8874e-21)
(1.2899 0.0789967 7.22055e-21)
(1.27056 0.0683584 2.59557e-20)
(1.25127 0.0593259 -3.41365e-20)
(1.23158 0.0517437 -2.49131e-20)
(1.211 0.0455311 1.26754e-20)
(1.18886 0.0405956 -1.13709e-20)
(1.16438 0.0368905 -1.38364e-20)
(1.13691 0.035461 -1.41856e-20)
(1.10624 0.0400064 -5.44538e-20)
(1.07067 0.0490334 4.18857e-20)
(0.439889 0.393479 -4.06341e-19)
(1.25513 0.708551 1.3955e-19)
(1.47204 0.648153 -5.57412e-20)
(1.50879 0.544844 -1.31255e-19)
(1.49562 0.452632 4.45912e-20)
(1.46988 0.376587 -1.07024e-20)
(1.44277 0.315548 -3.11143e-20)
(1.41689 0.266477 -1.66484e-20)
(1.39266 0.226736 1.31321e-21)
(1.36996 0.194251 -2.92436e-21)
(1.34858 0.167431 8.76249e-21)
(1.32831 0.145063 1.56944e-20)
(1.30894 0.126224 -1.72356e-20)
(1.29022 0.110204 2.60959e-21)
(1.27193 0.0964635 -7.55292e-21)
(1.25377 0.0845998 -1.21107e-20)
(1.23545 0.0743262 4.81958e-21)
(1.21659 0.0654636 0)
(1.19674 0.0579093 0)
(1.17533 0.0515423 -8.12387e-21)
(1.15163 0.0462826 3.66623e-20)
(1.12498 0.0431863 -1.54968e-20)
(1.09511 0.0461636 8.67667e-21)
(1.06079 0.0539105 0)
(0.72247 0.696317 6.69684e-20)
(1.28992 0.811477 1.32726e-19)
(1.42778 0.695576 6.9304e-20)
(1.44893 0.576895 2.47205e-20)
(1.43732 0.478524 1.87065e-20)
(1.41804 0.40018 8.30593e-21)
(1.39757 0.338026 6.71008e-21)
(1.37746 0.288117 -9.73658e-22)
(1.35805 0.247559 -4.41446e-21)
(1.33934 0.214221 -3.23246e-21)
(1.32128 0.186512 -4.66156e-21)
(1.30376 0.163235 -5.71766e-21)
(1.28664 0.143477 8.22921e-21)
(1.26978 0.126538 -4.61149e-21)
(1.25301 0.111875 1.55771e-20)
(1.2361 0.099072 4.75145e-21)
(1.2188 0.0878202 2.11746e-20)
(1.20084 0.0779114 8.52926e-22)
(1.18183 0.069213 -1.72298e-20)
(1.1613 0.0615744 2.59321e-20)
(1.1386 0.0548686 -1.36381e-20)
(1.11304 0.0501111 -4.65494e-21)
(1.08429 0.0513746 -3.89089e-21)
(1.0518 0.0584831 -4.588e-21)
(0.920467 0.996896 6.192e-20)
(1.25351 0.887571 -3.0251e-20)
(1.3539 0.724334 -1.41878e-20)
(1.37834 0.59675 8.57475e-21)
(1.37586 0.495578 -2.76243e-22)
(1.36512 0.416716 1.72497e-21)
(1.35177 0.35452 -1.20516e-21)
(1.3375 0.304573 2.30534e-21)
(1.32288 0.263843 7.59407e-22)
(1.30813 0.230188 4.60631e-21)
(1.29335 0.202042 -2.29275e-21)
(1.27856 0.178242 5.21329e-21)
(1.26372 0.157907 -1.01763e-20)
(1.24876 0.140356 5.67205e-21)
(1.23355 0.125057 5.5594e-21)
(1.21794 0.111594 -2.0034e-20)
(1.20173 0.0996445 9.76084e-21)
(1.1847 0.0889755 1.03579e-20)
(1.16657 0.0794228 -9.94536e-21)
(1.14696 0.0708118 0)
(1.12532 0.0629488 -5.41913e-21)
(1.10095 0.0565751 1.44968e-20)
(1.07351 0.0554801 -4.96032e-21)
(1.04363 0.0632221 -3.3479e-25)
(-0.0448457 -0.053657 1.19751e-20)
(-0.0480188 -0.0501014 1.19375e-22)
(-0.0417907 0.0574279 -1.64917e-20)
(-0.0585926 0.281219 2.65311e-20)
(0.0375554 0.444791 -1.13437e-19)
(0.0606198 1.07469 -5.30717e-21)
(-0.0496835 -0.0577931 -5.45382e-19)
(-0.0318735 -0.00988033 4.17994e-19)
(-0.00163309 0.122012 3.21e-19)
(0.0151665 0.330237 -2.58093e-19)
(0.096437 0.539278 1.03626e-19)
(0.246512 0.903022 2.68031e-20)
(-0.0501439 -0.0519626 -4.91302e-19)
(-0.0138348 0.0217693 -1.13491e-18)
(0.037871 0.162603 -8.91398e-19)
(0.084162 0.357799 3.00805e-19)
(0.195837 0.572063 -4.90406e-20)
(0.358079 0.832187 5.67222e-20)
(-0.050283 -0.045868 1.81606e-18)
(0.00516262 0.047677 2.48071e-21)
(0.0758869 0.192277 6.34741e-19)
(0.147459 0.375921 -5.77255e-20)
(0.27246 0.575376 0)
(0.436873 0.772069 -5.96072e-20)
(-0.0498083 -0.0377885 -2.08332e-18)
(0.0240458 0.0691171 -4.20594e-20)
(0.110804 0.213913 -3.31104e-20)
(0.202177 0.386363 -5.11436e-20)
(0.33307 0.564392 -3.48364e-19)
(0.491211 0.711958 7.32754e-20)
(-0.0470799 -0.025476 1.11903e-18)
(0.0416528 0.0848739 6.86256e-19)
(0.141828 0.228249 0)
(0.247693 0.390035 -8.72661e-19)
(0.380463 0.545081 3.54662e-19)
(0.527049 0.656494 1.27742e-19)
(-0.0445976 -0.0170213 6.97534e-20)
(0.0575236 0.0953737 -4.21533e-20)
(0.168869 0.236157 1.18641e-18)
(0.285149 0.387719 -2.15025e-21)
(0.416661 0.521009 -9.12809e-20)
(0.55046 0.606443 0)
(-0.0408532 -0.0121947 0)
(0.0715224 0.101255 0)
(0.191975 0.238682 -1.18266e-18)
(0.315748 0.38023 1.95243e-18)
(0.443739 0.494967 -7.97187e-19)
(0.565646 0.560509 0)
(-0.0362568 -0.0105804 1.04068e-19)
(0.0835883 0.1032 4.1009e-20)
(0.21125 0.23679 -6.61159e-20)
(0.340344 0.368734 -1.01797e-21)
(0.463681 0.468086 -1.46617e-21)
(0.574897 0.518279 -5.62899e-19)
(-0.0313426 -0.0115564 3.46303e-20)
(0.0935844 0.101917 8.22065e-20)
(0.226794 0.231263 -6.61909e-20)
(0.359476 0.354443 -4.26953e-22)
(0.478019 0.440839 8.73291e-19)
(0.579839 0.479145 -1.50496e-19)
(-0.0266267 -0.014486 0)
(0.101312 0.0980501 0)
(0.23869 0.222735 -1.30393e-19)
(0.373662 0.338103 -1.6383e-18)
(0.487818 0.413535 7.0572e-19)
(0.581666 0.442478 9.9078e-19)
(-0.022526 -0.0187685 -2.24626e-18)
(0.106545 0.0921089 0)
(0.246949 0.211692 -1.31116e-19)
(0.383436 0.320052 7.74647e-19)
(0.493918 0.386277 -5.24339e-19)
(0.581179 0.407732 -4.26374e-19)
(-0.0193485 -0.0238634 3.67884e-20)
(0.109073 0.0844703 1.32484e-18)
(0.251524 0.198451 -1.32086e-19)
(0.389249 0.300406 1.11884e-19)
(0.496946 0.359056 -1.72409e-19)
(0.578915 0.374419 -5.60321e-19)
(-0.0175106 -0.0294318 2.21279e-18)
(0.108727 0.0754242 -1.25119e-18)
(0.252337 0.18319 -6.75984e-20)
(0.391369 0.279165 0)
(0.497368 0.331757 1.73714e-19)
(0.5753 0.342121 5.60031e-19)
(-0.0172404 -0.0349854 3.45802e-20)
(0.105292 0.065136 8.38073e-20)
(0.249277 0.165981 -6.82423e-20)
(0.389886 0.256276 0)
(0.495528 0.304183 0)
(0.570658 0.310456 1.39477e-19)
(-0.0187136 -0.0400006 3.46292e-20)
(0.0985759 0.0537209 8.48713e-20)
(0.242181 0.146814 -6.9032e-20)
(0.384751 0.231586 -1.02902e-18)
(0.491647 0.276052 9.28221e-20)
(0.565262 0.279063 0)
(-0.0220786 -0.0440068 0)
(0.088403 0.0412669 8.62314e-20)
(0.230851 0.125626 1.04881e-18)
(0.375737 0.204812 1.11834e-19)
(0.485788 0.246978 -9.42256e-20)
(0.559362 0.247563 0)
(-0.0280714 -0.0484383 0)
(0.0745619 0.0278592 0)
(0.215049 0.102336 -2.13423e-18)
(0.362365 0.175604 8.26504e-19)
(0.477814 0.21644 -1.84493e-19)
(0.55321 0.215543 8.39997e-21)
(-0.0344353 -0.0502721 2.82706e-20)
(0.0569886 0.0134433 0)
(0.194522 0.0768694 1.74179e-18)
(0.343833 0.143535 4.83815e-19)
(0.467286 0.183745 0)
(0.547079 0.182524 0)
(-0.040103 -0.0509721 -1.3445e-20)
(0.0371092 -0.00169878 -4.60435e-20)
(0.169048 0.0493216 -1.22665e-18)
(0.318939 0.108161 -4.31687e-19)
(0.453246 0.147958 -4.97858e-19)
(0.54125 0.147884 8.00645e-20)
(-0.0445689 -0.0511832 -8.89865e-19)
(0.0156832 -0.0169789 7.59771e-19)
(0.138285 0.0201838 1.14831e-18)
(0.285949 0.0693001 6.35579e-20)
(0.433589 0.107656 5.13831e-19)
(0.535787 0.110342 -1.60526e-19)
(-0.0473079 -0.0504706 1.46178e-18)
(-0.00672683 -0.0312416 -8.18702e-19)
(0.101414 -0.00927024 -6.34759e-19)
(0.242122 0.0273767 3.24795e-19)
(0.403264 0.0603026 -5.42356e-20)
(0.530017 0.0662165 8.09786e-20)
(-0.0488827 -0.048559 -5.47881e-19)
(-0.0294527 -0.0437031 0)
(0.0559102 -0.0379921 1.64466e-19)
(0.181214 -0.0175632 -2.69371e-19)
(0.349561 0.00138573 5.41108e-20)
(0.522367 0.00543455 -4.54031e-20)
(-0.0385106 -0.0422984 4.38092e-30)
(-0.0441848 -0.0519298 0)
(0.00219279 -0.060735 -1.69993e-19)
(0.0892274 -0.0626307 3.42955e-20)
(0.241221 -0.0538343 -4.27048e-20)
(0.515783 -0.0214156 1.17026e-20)
(0.878436 1.19739 1.32286e-20)
(1.16823 0.916579 4.06694e-22)
(1.27149 0.72848 1.06398e-21)
(1.30661 0.601701 -2.81927e-21)
(1.31471 0.503018 1.4071e-21)
(1.31265 0.425893 1.01633e-20)
(1.30633 0.364977 6.60377e-21)
(1.29774 0.315901 7.86858e-21)
(1.28775 0.275666 4.25714e-21)
(1.27683 0.242204 6.48381e-21)
(1.26525 0.214033 -3.12393e-21)
(1.25315 0.190051 6.49764e-21)
(1.24059 0.169429 -1.25045e-20)
(1.22755 0.151521 1.23032e-20)
(1.21397 0.135823 2.01544e-22)
(1.19974 0.121936 4.90806e-22)
(1.18471 0.109546 7.97902e-32)
(1.16872 0.0984153 5.82275e-21)
(1.15155 0.0883728 -5.60897e-21)
(1.13292 0.0792551 0)
(1.11244 0.0708018 0)
(1.08954 0.063095 0)
(1.06368 0.0582293 1.17456e-20)
(1.03441 0.0690232 -1.13747e-20)
(0.836613 1.02128 -4.0837e-20)
(1.0948 0.865492 6.274e-20)
(1.19643 0.710843 -5.39596e-20)
(1.2388 0.593113 1.33401e-22)
(1.256 0.500771 3.34354e-20)
(1.26202 0.427887 1.61982e-20)
(1.26223 0.369709 1.42779e-20)
(1.25892 0.322388 -7.7512e-21)
(1.25325 0.283247 1.17795e-20)
(1.24593 0.250424 3.49557e-20)
(1.2374 0.222573 1.77494e-20)
(1.2279 0.198689 -1.50714e-20)
(1.21758 0.178005 0)
(1.20648 0.159923 1.52589e-20)
(1.19459 0.143975 -1.32139e-20)
(1.18185 0.12979 2.03291e-20)
(1.16816 0.117077 -1.25896e-20)
(1.1534 0.105619 3.87995e-20)
(1.13743 0.0952671 0)
(1.12005 0.0858531 1.27432e-20)
(1.1011 0.076989 1.24135e-20)
(1.0803 0.0685242 -2.41486e-20)
(1.05653 0.0634251 2.37761e-20)
(1.0259 0.0788346 1.33081e-20)
(0.784888 0.943002 1.68998e-19)
(1.02634 0.821191 -5.72399e-20)
(1.1275 0.682631 8.58921e-20)
(1.17599 0.575911 -1.99543e-20)
(1.20126 0.491754 -1.14996e-20)
(1.21433 0.424306 -3.82907e-20)
(1.22026 0.369617 3.34043e-20)
(1.22161 0.324579 -5.01166e-20)
(1.21984 0.286942 2.0895e-21)
(1.21583 0.255091 -3.77616e-20)
(1.21013 0.227834 -1.71676e-20)
(1.2031 0.204266 2.28806e-21)
(1.19494 0.183686 3.35886e-20)
(1.18575 0.165546 -4.94085e-20)
(1.17557 0.149408 -1.62366e-20)
(1.16437 0.134919 1.67103e-21)
(1.1521 0.121801 -1.37984e-20)
(1.13868 0.10984 -1.34387e-20)
(1.12399 0.0988665 -2.85406e-20)
(1.1079 0.0886211 4.03621e-20)
(1.09027 0.0785662 -6.43638e-20)
(1.07069 0.0689215 -5.25279e-20)
(1.04713 0.0645974 5.1566e-20)