/*--------------------------------*- C++ -*----------------------------------*\
  =========                 |
  \\      /  F ield         | OpenFOAM: The Open Source CFD Toolbox
   \\    /   O peration     | Website:  https://openfoam.org
    \\  /    A nd           | Version:  11
     \\/     M anipulation  |
\*---------------------------------------------------------------------------*/
FoamFile
{
    format      ascii;
    class       surfaceVectorField;
    location    "1.5";
    object      Uf;
}
// * * * * * * * * * * * * * * * * * * * * * * * * * * * * * * * * * * * * * //

dimensions      [0 1 -1 0 0 0 0];

internalField   nonuniform List<vector> 
5640
(
(-0.113394 0.0533751 1.56749e-30)
(-0.0774269 0.0562325 1.82742e-19)
(-0.282344 0.0795039 3.62902e-21)
(-0.238792 0.0908323 -1.47635e-19)
(-0.417932 0.0930324 1.81902e-21)
(-0.402683 0.107069 -1.10395e-19)
(-0.495258 0.100745 3.21948e-20)
(-0.47905 0.112683 9.01581e-20)
(-0.531972 0.111065 3.85218e-20)
(-0.518223 0.117289 -8.47414e-22)
(-0.526799 0.115522 -1.57242e-20)
(-0.526521 0.0984294 -2.53902e-20)
(-0.186922 0.0919074 5.41675e-20)
(-0.118619 0.0811376 3.39853e-19)
(-0.35127 0.116477 -2.63244e-19)
(-0.293541 0.122755 2.68186e-19)
(-0.44788 0.124615 -2.79521e-20)
(-0.419163 0.132927 2.11337e-19)
(-0.500725 0.124156 5.8337e-20)
(-0.477075 0.131663 -1.96789e-20)
(-0.524922 0.116995 -5.5018e-20)
(-0.506638 0.129071 -2.01865e-20)
(-0.515046 0.116418 -4.64126e-20)
(-0.521689 0.0941914 2.76767e-20)
(-0.209444 0.118533 5.62545e-19)
(-0.14397 0.106666 -4.06094e-19)
(-0.360085 0.142863 7.40304e-19)
(-0.305881 0.153419 4.10292e-19)
(-0.439607 0.144537 2.26987e-19)
(-0.411461 0.156546 9.21696e-20)
(-0.482882 0.139031 -9.61533e-20)
(-0.458252 0.150253 -9.02874e-20)
(-0.503067 0.127447 -1.09523e-20)
(-0.484264 0.142032 1.84144e-20)
(-0.492591 0.123755 -6.76979e-22)
(-0.505996 0.101729 -1.32653e-19)
(-0.225132 0.142265 -5.99613e-19)
(-0.169401 0.129989 2.60711e-20)
(-0.35696 0.167567 -2.21361e-19)
(-0.311027 0.180118 1.58015e-20)
(-0.424122 0.164213 -2.19504e-19)
(-0.398577 0.178646 -2.17784e-19)
(-0.459782 0.154298 2.14406e-20)
(-0.436317 0.168695 4.15169e-20)
(-0.476605 0.139087 2.91474e-20)
(-0.458063 0.156656 1.36857e-19)
(-0.464865 0.135809 2.66249e-22)
(-0.481628 0.112555 1.46755e-19)
(-0.241621 0.163443 6.47059e-19)
(-0.194814 0.150867 2.6289e-19)
(-0.351181 0.190217 2.83956e-20)
(-0.314714 0.201443 -2.28125e-19)
(-0.406487 0.183931 3.39751e-20)
(-0.383815 0.199208 1.26107e-20)
(-0.434694 0.171077 1.53762e-19)
(-0.41326 0.186983 3.35165e-19)
(-0.447497 0.15368 1.10721e-19)
(-0.42953 0.172876 3.31247e-21)
(-0.433354 0.151311 -8.90964e-20)
(-0.451453 0.127393 -1.67406e-19)
(-0.25739 0.182877 -5.9248e-19)
(-0.214379 0.171111 -3.65112e-19)
(-0.344665 0.209635 -2.5567e-19)
(-0.315839 0.218112 -2.30445e-19)
(-0.387575 0.202922 3.03879e-19)
(-0.367852 0.218025 -4.15283e-19)
(-0.408184 0.188728 1.93298e-19)
(-0.389334 0.205115 3.14464e-19)
(-0.415936 0.170658 -1.95054e-19)
(-0.399262 0.190357 -1.00808e-19)
(-0.398455 0.16937 -5.94994e-20)
(-0.416377 0.145569 9.74426e-20)
(-0.266956 0.203913 -1.05852e-20)
(-0.227339 0.190429 -2.34306e-20)
(-0.336097 0.226461 -3.82192e-19)
(-0.31327 0.232222 1.47902e-20)
(-0.36763 0.220936 -4.30469e-19)
(-0.35098 0.235291 -8.87403e-21)
(-0.380523 0.206812 3.19105e-20)
(-0.364766 0.223005 -6.83791e-19)
(-0.382149 0.189254 3.37566e-20)
(-0.367659 0.208658 3.31631e-19)
(-0.360688 0.189111 0)
(-0.376933 0.166127 0)
(-0.270789 0.218442 0)
(-0.237491 0.206995 -3.5082e-20)
(-0.325544 0.241301 3.89337e-19)
(-0.307679 0.244448 -1.44966e-20)
(-0.346943 0.237993 -2.39745e-19)
(-0.333529 0.251176 4.28684e-19)
(-0.352059 0.225006 -4.1234e-19)
(-0.339842 0.240494 -6.84146e-19)
(-0.346595 0.208726 3.05824e-19)
(-0.335215 0.227277 2.99603e-19)
(-0.32083 0.2096 2.43958e-19)
(-0.333865 0.188015 0)
(-0.271836 0.230893 -5.02811e-20)
(-0.244833 0.220535 -4.67811e-20)
(-0.313446 0.254606 5.31108e-21)
(-0.29978 0.255076 -4.28391e-20)
(-0.325883 0.254117 2.24735e-20)
(-0.315766 0.265818 4.39247e-20)
(-0.323237 0.242968 3.84256e-22)
(-0.314884 0.25739 -6.50539e-22)
(-0.309983 0.228348 2.38866e-19)
(-0.302565 0.245693 -3.33296e-19)
(-0.279918 0.229905 3.05565e-19)
(-0.28831 0.210117 2.84499e-19)
(-0.270858 0.241518 -3.90815e-20)
(-0.249421 0.230864 -1.16991e-20)
(-0.30016 0.266608 -9.41394e-21)
(-0.290079 0.264269 -2.83425e-20)
(-0.304743 0.269328 2.24546e-20)
(-0.297811 0.279394 6.64409e-20)
(-0.294572 0.260352 -3.24985e-19)
(-0.290258 0.273529 5.64209e-19)
(-0.273226 0.247417 -2.81918e-19)
(-0.27045 0.263428 -6.02408e-19)
(-0.239215 0.249169 -3.70504e-19)
(-0.241775 0.231311 1.45462e-19)
(-0.267836 0.249976 0)
(-0.25121 0.237914 7.64059e-19)
(-0.285985 0.277453 4.26625e-20)
(-0.27892 0.272163 0)
(-0.283735 0.283637 5.91203e-19)
(-0.279764 0.292068 8.91188e-20)
(-0.26664 0.27688 3.19582e-19)
(-0.26638 0.28881 3.01676e-19)
(-0.237381 0.265325 -6.96323e-19)
(-0.239669 0.280109 -6.51185e-20)
(-0.200125 0.266684 -2.45935e-19)
(-0.196015 0.250577 -4.65418e-19)
(-0.262519 0.256248 8.08139e-19)
(-0.250009 0.24176 7.52042e-19)
(-0.271487 0.286937 4.2664e-20)
(-0.266595 0.279044 -4.46874e-19)
(-0.263137 0.297065 -2.08237e-19)
(-0.261738 0.303836 8.92321e-20)
(-0.240059 0.292367 -7.25063e-20)
(-0.243675 0.303205 -3.00296e-19)
(-0.203572 0.281611 3.89586e-19)
(-0.211038 0.295504 2.71573e-19)
(-0.164078 0.281948 4.36334e-19)
(-0.152854 0.267118 2.53374e-19)
(-0.255057 0.260303 -4.34125e-19)
(-0.245595 0.242691 -7.65478e-19)
(-0.255731 0.296237 -4.23119e-19)
(-0.253019 0.28487 -2.3767e-20)
(-0.243295 0.309663 9.48318e-21)
(-0.24413 0.314975 6.66471e-20)
(-0.215436 0.30673 2.79893e-20)
(-0.222544 0.31674 -3.74969e-20)
(-0.172887 0.296015 3.14091e-19)
(-0.185336 0.309522 -2.97853e-22)
(-0.132407 0.294706 -2.21288e-21)
(-0.114009 0.280447 2.55148e-19)
(-0.245451 0.262162 -3.97848e-19)
(-0.237863 0.241048 -7.64854e-19)
(-0.239936 0.304472 4.60601e-19)
(-0.238343 0.2898 3.94201e-19)
(-0.224542 0.321541 2.27176e-20)
(-0.227016 0.325526 4.41362e-20)
(-0.193334 0.319989 -6.68271e-20)
(-0.203363 0.329479 0)
(-0.146321 0.30847 -3.16441e-19)
(-0.163266 0.322218 -6.87548e-20)
(-0.10625 0.304945 -3.15371e-19)
(-0.0809243 0.290385 -2.57008e-19)
(-0.233438 0.262431 -3.96735e-20)
(-0.226681 0.237211 -2.34636e-20)
(-0.223873 0.312052 -1.08003e-20)
(-0.222706 0.293858 -5.83315e-20)
(-0.207113 0.332785 2.29097e-20)
(-0.210547 0.335573 4.45752e-20)
(-0.174251 0.332253 0)
(-0.186441 0.341523 3.49069e-19)
(-0.124718 0.319068 -6.15818e-20)
(-0.145425 0.333761 -3.43036e-20)
(-0.086537 0.312834 -6.30943e-20)
(-0.0546243 0.296947 -1.09601e-19)
(-0.219251 0.261354 -4.01101e-20)
(-0.211409 0.232678 -1.17202e-20)
(-0.20769 0.319006 -1.14373e-20)
(-0.206239 0.296927 -5.93644e-20)
(-0.191218 0.343463 3.60447e-19)
(-0.194876 0.345076 -3.24117e-19)
(-0.158587 0.343696 3.2587e-19)
(-0.172006 0.352955 3.08422e-19)
(-0.10882 0.328021 -3.51259e-20)
(-0.132289 0.344436 3.67051e-22)
(-0.074187 0.318665 0)
(-0.0357471 0.299915 0)
(-0.204082 0.261121 -2.82259e-20)
(-0.188261 0.23572 0)
(-0.191687 0.325337 -3.65749e-19)
(-0.189537 0.298343 -2.9954e-20)
(-0.177045 0.353536 -3.9722e-19)
(-0.180184 0.353719 3.58771e-19)
(-0.146647 0.354533 -8.24023e-21)
(-0.160158 0.363755 -3.20561e-19)
(-0.0993901 0.335724 3.55018e-20)
(-0.12417 0.354693 1.05223e-19)
(-0.0703684 0.323062 -2.72857e-22)
(-0.0247441 0.298582 -2.87971e-19)
(-0.177786 0.264386 0)
(-0.16218 0.236215 -9.59376e-21)
(-0.176317 0.3302 6.74965e-19)
(-0.175184 0.296036 0)
(-0.164628 0.362673 4.59412e-19)
(-0.16653 0.36066 1.29924e-19)
(-0.13859 0.364934 -2.19059e-19)
(-0.150788 0.373721 -4.4206e-19)
(-0.0970806 0.34292 7.18121e-20)
(-0.12105 0.365143 7.05524e-20)
(-0.076008 0.326284 -2.72857e-22)
(-0.0189107 0.29302 2.56768e-19)
(-0.158524 0.25685 -1.01472e-20)
(-0.140024 0.222148 -5.01679e-21)
(-0.162487 0.330696 -5.50908e-19)
(-0.16129 0.288095 1.54981e-20)
(-0.153651 0.370178 -7.5162e-19)
(-0.153099 0.364864 -1.7057e-19)
(-0.134142 0.374915 -1.66821e-19)
(-0.143415 0.382512 -1.75426e-20)
(-0.10169 0.350162 0)
(-0.122566 0.376476 1.8073e-19)
(-0.0916549 0.326791 -3.26104e-20)
(-0.0129617 0.284418 -1.42651e-19)
(-0.142507 0.242147 1.9445e-20)
(-0.118383 0.202003 3.05114e-19)
(-0.148662 0.327155 4.0646e-19)
(-0.145656 0.275715 -2.33369e-19)
(-0.143286 0.375584 5.58505e-19)
(-0.138927 0.365993 2.64571e-20)
(-0.132553 0.38455 3.24594e-19)
(-0.137229 0.389522 1.23539e-19)
(-0.114217 0.358724 1.57154e-19)
(-0.127595 0.390807 -5.31636e-21)
(-0.120236 0.324025 3.26588e-20)
(-0.00345922 0.26831 1.07374e-19)
(-0.121638 0.223892 8.33663e-20)
(-0.0958796 0.18049 -1.91776e-19)
(-0.133143 0.319836 -6.22413e-19)
(-0.127663 0.259414 1.92472e-20)
(-0.132856 0.378386 -4.12732e-19)
(-0.123194 0.363984 -1.67172e-19)
(-0.132617 0.394572 -2.02963e-19)
(-0.130894 0.392844 -1.33518e-19)
(-0.132126 0.373363 -1.41079e-19)
(-0.132558 0.413247 -1.67037e-19)
(-0.15915 0.321064 3.33103e-20)
(0.0186307 0.258663 1.69841e-19)
(-0.102195 0.203856 -2.6589e-19)
(-0.0732463 0.156384 -3.04363e-19)
(-0.116231 0.30941 4.81681e-19)
(-0.106949 0.237887 2.67867e-19)
(-0.121123 0.377082 1.10156e-19)
(-0.105758 0.357478 1.55644e-19)
(-0.131102 0.404863 -9.33429e-20)
(-0.122378 0.386962 -1.77209e-20)
(-0.146948 0.401339 -1.15116e-20)
(-0.131563 0.446095 -1.94734e-21)
(-0.18024 0.318911 -1.37914e-20)
(0.078298 0.313926 -1.70074e-19)
(-0.0824377 0.177409 1.93763e-19)
(-0.0529109 0.10948 1.82418e-19)
(-0.0977585 0.293849 -5.33939e-20)
(-0.0837923 0.191257 -4.58403e-21)
(-0.108252 0.366455 3.30718e-20)
(-0.0883102 0.329928 1.91941e-21)
(-0.124817 0.409987 7.59532e-20)
(-0.109699 0.349115 9.69404e-20)
(-0.146123 0.437789 -3.00365e-20)
(-0.120408 0.47242 -1.55683e-20)
(-0.166088 0.2857 5.62413e-21)
(0.194762 0.42021 4.91063e-20)
(-0.0542217 0.107214 -5.14007e-21)
(-0.0731311 0.238743 4.99066e-20)
(-0.0851895 0.31117 6.34197e-20)
(-0.101137 0.377272 8.57326e-21)
(-0.126294 0.431584 2.49118e-21)
(0.292616 0.491743 2.93476e-20)
(-0.529015 0.0453636 -3.4947e-20)
(-0.521996 0.067829 2.83779e-20)
(-0.509976 0.0656613 7.37761e-21)
(-0.541134 -0.000799465 -3.96622e-21)
(-0.536055 0.0202626 -9.22149e-20)
(-0.532063 0.0136455 -3.66355e-20)
(-0.543891 -0.036409 6.14689e-32)
(-0.543969 -0.0180428 8.4492e-20)
(-0.542599 -0.0201294 -2.532e-20)
(-0.532649 -0.0703074 -4.68066e-21)
(-0.539412 -0.0571296 -7.04128e-22)
(-0.539254 -0.0507517 2.75916e-20)
(-0.505234 -0.101126 -2.49217e-20)
(-0.518168 -0.0959514 -5.82151e-20)
(-0.519808 -0.0778459 -1.44034e-20)
(-0.462817 -0.126375 -2.07355e-20)
(-0.479898 -0.131128 -3.89784e-20)
(-0.484538 -0.100079 -3.82486e-21)
(-0.408664 -0.144165 -1.22337e-20)
(-0.427435 -0.159159 -1.52048e-20)
(-0.436029 -0.115855 9.64666e-21)
(-0.346646 -0.15365 -2.16401e-20)
(-0.36526 -0.177942 -8.37764e-22)
(-0.37786 -0.124206 -2.37154e-20)
(-0.280349 -0.155141 -1.33508e-20)
(-0.297626 -0.187038 -1.85567e-20)
(-0.313406 -0.12518 -2.29336e-20)
(-0.212836 -0.14983 -3.75282e-21)
(-0.228146 -0.187238 -2.92113e-20)
(-0.24576 -0.119754 -3.71408e-21)
(-0.14622 -0.139211 1.32001e-31)
(-0.159663 -0.180319 -7.51856e-21)
(-0.177522 -0.109277 -1.99935e-33)
(-0.0818575 -0.124663 5.71681e-32)
(-0.093808 -0.168016 8.43392e-21)
(-0.110292 -0.0950502 -2.13758e-33)
(-0.0205702 -0.107379 1.7309e-21)
(-0.031511 -0.151853 0)
(-0.0452126 -0.0782257 0)
(0.0371752 -0.0883463 -1.04095e-21)
(0.0267452 -0.133079 -1.73773e-21)
(0.0169622 -0.0597688 5.95038e-21)
(0.091173 -0.068348 -3.46988e-21)
(0.080815 -0.112714 -1.0234e-21)
(0.0757784 -0.0404525 -6.07752e-21)
(0.141361 -0.0479864 -3.19858e-22)
(0.130748 -0.0915178 -3.6227e-21)
(0.130976 -0.0208828 7.75246e-23)
(0.187777 -0.0277251 4.08335e-22)
(0.176672 -0.0700924 9.26765e-22)
(0.182422 -0.00153503 6.20183e-22)
(0.230583 -0.00786364 4.32234e-22)
(0.218773 -0.0488848 -1.47531e-21)
(0.230061 0.0173451 -7.69345e-24)
(0.269769 0.0111758 2.91874e-22)
(0.257299 -0.0281898 2.8994e-22)
(0.273859 0.035198 5.96094e-22)
(0.305331 0.0287875 -1.10438e-23)
(0.292305 -0.00837369 1.87352e-22)
(0.313802 0.0516469 6.84059e-22)
(0.337209 0.0443475 1.52989e-22)
(0.323787 0.0102145 2.80213e-22)
(0.349898 0.0662404 -2.61131e-22)
(0.365415 0.0570995 -1.88425e-22)
(0.351844 0.0268387 -6.20791e-22)
(0.382282 0.078337 -1.17828e-22)
(0.389849 0.0663797 -2.66483e-21)
(0.37762 0.0409265 4.09752e-22)
(0.411758 0.0870819 -3.04224e-22)
(0.404587 0.0513679 5.09313e-22)
(0.441548 0.0919203 3.68238e-22)
(-0.527518 0.0477233 -2.84668e-20)
(-0.514489 0.0734107 -5.96451e-20)
(-0.537851 0.00403848 -7.78875e-21)
(-0.527619 0.0283254 -7.08259e-21)
(-0.538953 -0.0380216 8.56069e-20)
(-0.533999 -0.0141744 -3.10241e-20)
(-0.525225 -0.0821233 -5.32341e-20)
(-0.526983 -0.0618113 2.54913e-20)
(-0.49401 -0.125476 -7.24833e-20)
(-0.501304 -0.112826 -3.12863e-20)
(-0.446245 -0.163637 -3.35207e-20)
(-0.45631 -0.161818 3.71262e-20)
(-0.385826 -0.192871 -4.11378e-21)
(-0.39523 -0.202788 -4.70596e-20)
(-0.317792 -0.211427 2.43431e-21)
(-0.323964 -0.231941 5.94811e-20)
(-0.246654 -0.219333 -3.4317e-20)
(-0.248253 -0.248378 -7.33053e-21)
(-0.175933 -0.217984 -3.30056e-20)
(-0.172542 -0.252959 3.55581e-21)
(-0.10794 -0.209413 7.87451e-22)
(-0.0999567 -0.248013 2.67582e-21)
(-0.0439595 -0.195506 8.5121e-21)
(-0.0321967 -0.235974 6.75404e-21)
(0.0154264 -0.17786 -3.45338e-21)
(0.0300736 -0.218929 -1.17617e-20)
(0.0701148 -0.15774 -1.67741e-21)
(0.0867515 -0.198593 6.62941e-21)
(0.120193 -0.13613 -9.40973e-22)
(0.138094 -0.176191 4.9431e-21)
(0.165903 -0.113785 -2.43454e-21)
(0.184526 -0.152691 -1.93548e-21)
(0.207534 -0.0912719 -7.77982e-22)
(0.226495 -0.128787 1.75811e-21)
(0.245375 -0.0690111 -1.67763e-21)
(0.264448 -0.10497 -1.03564e-21)
(0.279716 -0.0473115 1.86102e-22)
(0.298795 -0.0815808 -5.43495e-22)
(0.310765 -0.0264269 4.78013e-22)
(0.329868 -0.0588884 1.67389e-21)
(0.338652 -0.00663902 -3.34488e-22)
(0.357865 -0.0371212 -1.16914e-21)
(0.363275 0.0115182 -6.98713e-22)
(0.383107 -0.0165365 -2.2474e-21)
(0.384651 0.0265454 9.25879e-22)
(0.407033 0.00239354 2.17048e-21)
(0.43274 0.0173267 -4.84082e-22)
(-0.513591 0.0558032 -3.93374e-20)
(-0.496102 0.0831953 1.85333e-20)
(-0.522697 0.0113512 -2.96293e-20)
(-0.50809 0.0396483 2.1953e-19)
(-0.521344 -0.036981 -9.25669e-20)
(-0.511912 -0.00687665 -1.15489e-19)
(-0.503272 -0.0916589 4.84263e-20)
(-0.500612 -0.063161 2.61954e-20)
(-0.465025 -0.148505 7.77071e-20)
(-0.467456 -0.127093 -2.28887e-20)
(-0.407485 -0.200558 2.472e-20)
(-0.411124 -0.191066 6.01541e-20)
(-0.335619 -0.241648 1.51524e-20)
(-0.335792 -0.245878 3.49453e-20)
(-0.256315 -0.268795 5.04725e-20)
(-0.249678 -0.285248 2.73002e-20)
(-0.175575 -0.28196 3.08377e-20)
(-0.160713 -0.307792 1.63172e-21)
(-0.0975979 -0.282952 3.92485e-20)
(-0.0746161 -0.314923 6.80534e-22)
(-0.024915 -0.274507 8.50987e-21)
(0.00512133 -0.309787 1.00744e-20)
(0.0413547 -0.259281 -1.31118e-20)
(0.0770192 -0.295813 1.22752e-20)
(0.101049 -0.239489 -2.12984e-21)
(0.140926 -0.275933 -1.17617e-20)
(0.154487 -0.216819 1.26545e-20)
(0.197334 -0.252377 8.90537e-21)
(0.20225 -0.1925 3.59487e-21)
(0.247083 -0.226728 -1.62659e-21)
(0.244976 -0.167426 1.89638e-21)
(0.291082 -0.200103 3.9139e-21)
(0.283289 -0.142217 1.06566e-21)
(0.330198 -0.173266 9.76818e-22)
(0.317754 -0.117296 -2.31948e-22)
(0.365211 -0.146713 -1.04221e-21)
(0.348862 -0.0929533 6.84882e-22)
(0.396795 -0.120758 3.87039e-22)
(0.377029 -0.0694034 -9.17245e-22)
(0.425508 -0.0956076 -1.00978e-21)
(0.402591 -0.0468595 -3.28302e-21)
(0.451773 -0.071402 -7.65491e-22)
(0.425856 -0.0258114 -1.7361e-21)
(0.476171 -0.0482648 -1.61589e-21)
(0.447343 -0.00821571 1.25776e-21)
(0.499913 -0.0266308 2.47953e-21)
(0.525783 -0.00930443 -8.6942e-22)
(-0.48971 0.0683683 2.72519e-19)
(-0.469176 0.0974944 -2.53453e-20)
(-0.496031 0.0226544 1.41502e-19)
(-0.478062 0.0550022 -1.45297e-19)
(-0.490225 -0.0318614 0)
(-0.477171 0.00503034 6.38946e-20)
(-0.464884 -0.0975471 -4.42987e-20)
(-0.45868 -0.0597066 -5.87029e-20)
(-0.415303 -0.168991 -4.00938e-20)
(-0.413731 -0.137215 5.97605e-20)
(-0.342338 -0.236188 7.34078e-20)
(-0.340016 -0.21744 4.55553e-21)
(-0.252775 -0.289651 4.9084e-20)
(-0.24355 -0.287006 6.74016e-20)
(-0.156382 -0.3247 -2.18369e-20)
(-0.136454 -0.336125 -1.48017e-20)
(-0.0613818 -0.341363 -2.79815e-20)
(-0.029765 -0.362903 8.05536e-20)
(0.027067 -0.342314 -2.85915e-20)
(0.069319 -0.369957 -6.2728e-20)
(0.106455 -0.331492 1.41055e-20)
(0.157378 -0.361811 3.50637e-20)
(0.176254 -0.312683 1.43773e-20)
(0.233801 -0.343296 -3.25334e-20)
(0.237014 -0.288869 -6.25561e-22)
(0.299298 -0.31839 0)
(0.289804 -0.262185 -4.4919e-21)
(0.355242 -0.28999 -3.07284e-21)
(0.335818 -0.23411 -1.833e-21)
(0.403216 -0.259989 -1.21338e-20)
(0.37621 -0.205643 2.33689e-21)
(0.444739 -0.229621 2.10254e-21)
(0.41202 -0.177428 -5.26585e-22)
(0.481151 -0.19968 2.2008e-22)
(0.444146 -0.149855 7.26603e-22)
(0.513588 -0.17062 -1.34786e-21)
(0.473347 -0.123161 -5.86052e-22)
(0.542986 -0.142694 3.79024e-22)
(0.50027 -0.097476 -9.89606e-22)
(0.570141 -0.116042 -7.93155e-21)
(0.52546 -0.0729125 9.06894e-22)
(0.59563 -0.0907299 7.30163e-21)
(0.549434 -0.0497498 9.13736e-22)
(0.620296 -0.0667845 -5.92631e-21)
(0.572755 -0.0297987 3.71605e-22)
(0.644576 -0.0443022 4.83462e-21)
(0.672807 -0.0247217 2.87618e-22)
(-0.45682 0.0852641 -4.40441e-19)
(-0.434992 0.115727 4.08513e-20)
(-0.457696 0.0386637 -2.27447e-19)
(-0.437771 0.0746097 -1.38847e-19)
(-0.444206 -0.0214336 1.03101e-20)
(-0.428899 0.0222748 3.40814e-19)
(-0.407309 -0.0982174 4.33753e-20)
(-0.398995 -0.0501681 -3.12697e-19)
(-0.340582 -0.18522 1.06405e-19)
(-0.336212 -0.141449 -2.2624e-19)
(-0.24517 -0.268628 0)
(-0.23717 -0.238773 0)
(-0.131126 -0.334294 6.69075e-21)
(-0.111679 -0.323421 1.54669e-19)
(-0.0128468 -0.375236 9.06197e-20)
(0.0216862 -0.380839 -1.67046e-19)
(0.0989619 -0.392179 4.60616e-20)
(0.14839 -0.409109 8.05536e-20)
(0.198463 -0.38987 4.48057e-22)
(0.26039 -0.412633 -1.51594e-21)
(0.28418 -0.373869 -1.01311e-20)
(0.355349 -0.398583 -4.30366e-20)
(0.356654 -0.34917 -4.72123e-20)
(0.434135 -0.373197 4.05044e-21)
(0.417499 -0.319633 -2.38781e-21)
(0.498823 -0.341544 1.79525e-20)
(0.468702 -0.287882 -9.26957e-21)
(0.552023 -0.307174 5.93859e-21)
(0.512205 -0.255558 -8.31137e-21)
(0.596249 -0.272264 -1.02163e-20)
(0.549734 -0.223689 0)
(0.633713 -0.238079 -5.5627e-21)
(0.582743 -0.192874 0)
(0.666226 -0.205334 1.2744e-22)
(0.612417 -0.163429 -1.25029e-21)
(0.695211 -0.174368 1.54233e-21)
(0.639725 -0.135519 -6.91104e-21)
(0.721775 -0.145323 -9.70076e-21)
(0.665479 -0.109204 1.73892e-21)
(0.746878 -0.118265 2.07133e-23)
(0.690357 -0.0845276 8.90504e-22)
(0.771001 -0.0932331 3.47698e-21)
(0.714927 -0.0613265 -2.82464e-21)
(0.795608 -0.0700768 -2.55128e-22)
(0.739473 -0.0404218 4.78293e-21)
(0.819056 -0.0486208 7.45936e-21)
(0.851753 -0.0267287 -1.192e-21)
(-0.415433 0.106052 3.47221e-19)
(-0.394371 0.137037 2.00318e-19)
(-0.407264 0.0595864 4.1976e-19)
(-0.387422 0.0981415 1.45591e-19)
(-0.38158 -0.00483885 3.27977e-20)
(-0.366278 0.0449914 -8.25264e-22)
(-0.327107 -0.0921158 -5.85207e-19)
(-0.319208 -0.0337393 -1.08336e-21)
(-0.23535 -0.194921 -3.37578e-19)
(-0.230215 -0.138072 -3.5173e-19)
(-0.109092 -0.294657 1.52516e-19)
(-0.0955561 -0.251905 0)
(0.0358268 -0.371085 -1.54279e-20)
(0.0673957 -0.350232 -6.92616e-20)
(0.179255 -0.414671 -1.76402e-19)
(0.230963 -0.41322 1.4129e-20)
(0.306984 -0.428619 2.95028e-20)
(0.376583 -0.438283 -9.36367e-20)
(0.415477 -0.419879 -4.71397e-20)
(0.49768 -0.435595 2.98348e-20)
(0.504334 -0.396058 -3.3893e-20)
(0.594143 -0.413365 -7.43148e-20)
(0.57576 -0.363625 6.5684e-20)
(0.669346 -0.379645 4.7458e-20)
(0.633013 -0.327253 2.34346e-20)
(0.727618 -0.340676 -8.36069e-21)
(0.67934 -0.28994 3.46246e-21)
(0.773237 -0.300452 -1.59628e-20)
(0.717567 -0.253414 -5.71657e-21)
(0.809741 -0.261251 1.8953e-20)
(0.750031 -0.21859 -5.47839e-21)
(0.840109 -0.224223 6.14966e-21)
(0.778529 -0.185889 1.65951e-21)
(0.866409 -0.189854 4.52515e-21)
(0.804403 -0.155459 -5.43128e-21)
(0.890297 -0.158182 3.04329e-21)
(0.828705 -0.12736 -3.21357e-22)
(0.912881 -0.12919 -6.7776e-21)
(0.852257 -0.101567 2.49808e-21)
(0.935004 -0.102862 2.54086e-21)
(0.875733 -0.0781108 3.1033e-21)
(0.956626 -0.0793435 -5.55345e-21)
(0.899525 -0.0564096 1.11504e-20)
(0.980581 -0.0578891 5.13479e-21)
(0.923564 -0.0364099 3.17989e-20)
(0.999893 -0.0395403 5.67396e-21)
(1.03874 -0.016768 -6.10905e-21)
(-0.366102 0.129941 0)
(-0.348152 0.160384 0)
(-0.344583 0.0849767 -2.7443e-19)
(-0.327666 0.124626 0)
(-0.300912 0.0180088 -3.30311e-20)
(-0.289281 0.0723444 -3.55203e-19)
(-0.220626 -0.0783491 2.48458e-19)
(-0.21787 -0.0108804 7.46357e-19)
(-0.0931475 -0.195994 -1.35345e-20)
(-0.0918621 -0.126504 -2.74264e-20)
(0.0745311 -0.310357 -2.27332e-19)
(0.0905744 -0.254359 -1.07989e-19)
(0.256125 -0.394578 -3.65149e-20)
(0.297694 -0.362259 -2.30542e-19)
(0.42366 -0.43773 9.86539e-20)
(0.489765 -0.425514 1.88921e-19)
(0.564123 -0.445182 -9.46786e-20)
(0.646212 -0.445121 3.08885e-21)
(0.674703 -0.427704 -2.78094e-21)
(0.764431 -0.434181 1.40722e-19)
(0.758528 -0.394779 -2.83784e-21)
(0.850283 -0.403532 7.11853e-20)
(0.820988 -0.354207 -1.80501e-20)
(0.911183 -0.362565 -4.59161e-20)
(0.867746 -0.311388 -3.95261e-20)
(0.954418 -0.318169 -3.92572e-20)
(0.903579 -0.269468 -1.13586e-20)
(0.98596 -0.274375 4.12104e-21)
(0.932178 -0.230093 1.98106e-20)
(1.01006 -0.233268 1.39641e-20)
(0.956353 -0.193932 5.69713e-21)
(1.03024 -0.195707 7.45492e-21)
(0.978148 -0.161092 -1.24807e-21)
(1.04815 -0.162145 9.09425e-21)
(0.998904 -0.131415 -1.34577e-22)
(1.06484 -0.132413 -6.37863e-21)
(1.01932 -0.104748 -2.12729e-21)
(1.08076 -0.106039 2.66608e-21)
(1.03988 -0.0810279 -8.73732e-22)
(1.09694 -0.0826602 -1.57602e-21)
(1.06115 -0.0602043 -2.06046e-21)
(1.11303 -0.0627832 1.01356e-21)
(1.08267 -0.0416059 -3.44845e-22)
(1.13131 -0.0445624 -4.08035e-21)
(1.10494 -0.0255081 1.58324e-22)
(1.14369 -0.0310451 1.78254e-21)
(1.18006 -0.0100017 4.82126e-22)
(-0.309824 0.155705 0)
(-0.297543 0.184508 0)
(-0.270513 0.113518 -7.33346e-20)
(-0.260055 0.15243 8.21942e-20)
(-0.202432 0.0458392 3.96185e-19)
(-0.199686 0.102218 -2.27974e-19)
(-0.0863703 -0.0576999 5.05532e-19)
(-0.096443 0.0157141 5.73795e-19)
(0.0893593 -0.187327 -1.06011e-19)
(0.078557 -0.108955 1.23658e-19)
(0.306716 -0.312108 -1.09492e-19)
(0.318324 -0.245653 -2.29733e-20)
(0.523759 -0.400266 0)
(0.567405 -0.356133 8.28685e-20)
(0.707553 -0.438835 1.07047e-19)
(0.774544 -0.416499 -7.71987e-20)
(0.844705 -0.438174 2.56423e-19)
(0.92042 -0.428567 2.75053e-20)
(0.940661 -0.412484 2.24587e-19)
(1.01608 -0.411053 1.40722e-19)
(1.0048 -0.372789 4.24841e-20)
(1.07559 -0.375849 4.78823e-20)
(1.04675 -0.327526 -6.10315e-20)
(1.11107 -0.332382 -5.96973e-20)
(1.07467 -0.282042 3.37554e-21)
(1.1321 -0.287539 1.7295e-21)
(1.09439 -0.239162 3.02916e-20)
(1.14523 -0.244882 -3.99154e-22)
(1.10995 -0.200158 -4.32139e-21)
(1.15471 -0.206112 2.89117e-20)
(1.12354 -0.165409 4.76746e-22)
(1.16251 -0.171652 -2.30703e-20)
(1.13597 -0.134746 1.03398e-20)
(1.16959 -0.141104 2.15213e-20)
(1.14758 -0.107808 -1.89433e-21)
(1.1765 -0.114202 4.70044e-21)
(1.15888 -0.0843723 3.96155e-21)
(1.18342 -0.0908526 5.30753e-21)
(1.17048 -0.0644036 2.58573e-21)
(1.19137 -0.0708088 1.07744e-20)
(1.18242 -0.0473608 1.7931e-21)
(1.19975 -0.0543641 7.92791e-21)
(1.19421 -0.0326763 -2.9518e-21)
(1.20857 -0.0398985 -1.2459e-21)
(1.2065 -0.0211983 1.11155e-21)
(1.21404 -0.0293525 -1.70866e-21)
(1.23909 -0.0110234 1.0563e-21)
(-0.248406 0.181732 8.02238e-20)
(-0.244258 0.20802 8.85385e-20)
(-0.187711 0.142991 -6.15386e-20)
(-0.187256 0.179505 1.55058e-21)
(-0.0901756 0.0753207 -8.56818e-20)
(-0.101843 0.131743 -1.5307e-19)
(0.0707147 -0.0339514 2.05229e-19)
(0.0397969 0.0417349 8.68802e-20)
(0.304215 -0.170917 2.2353e-19)
(0.275052 -0.0893027 1.26942e-19)
(0.569562 -0.299147 1.87052e-19)
(0.572602 -0.226772 1.03891e-19)
(0.808405 -0.383736 -1.83641e-20)
(0.848088 -0.332913 1.67286e-19)
(0.982873 -0.415139 -1.76843e-19)
(1.04291 -0.385778 -4.22899e-19)
(1.09153 -0.407826 -1.01027e-19)
(1.15381 -0.390846 -7.47894e-20)
(1.15378 -0.379029 -4.96027e-20)
(1.21177 -0.371186 1.07604e-20)
(1.1861 -0.339252 -4.79145e-20)
(1.23747 -0.337595 5.22056e-21)
(1.20081 -0.296122 2.81398e-21)
(1.24491 -0.29765 -3.76507e-20)
(1.20676 -0.254075 -2.36378e-20)
(1.24381 -0.257885 3.59423e-20)
(1.20905 -0.215222 -8.66038e-21)
(1.23976 -0.220805 5.53043e-21)
(1.21001 -0.180336 1.11933e-21)
(1.2356 -0.187113 -5.22531e-21)
(1.21063 -0.149509 -1.97298e-20)
(1.23196 -0.157156 -2.84828e-20)
(1.21177 -0.122558 1.0914e-20)
(1.22961 -0.130908 2.38826e-20)
(1.21394 -0.0991426 -2.88051e-21)
(1.22878 -0.108102 -1.25488e-20)
(1.21732 -0.0790711 -1.078e-21)
(1.22924 -0.0884323 -4.94667e-22)
(1.22172 -0.0623359 3.06423e-21)
(1.23084 -0.0715651 -1.95314e-21)
(1.22639 -0.0483392 1.28616e-21)
(1.23279 -0.0575603 -6.17746e-22)
(1.23073 -0.0365032 0)
(1.23414 -0.0455466 0)
(1.23457 -0.026683 -1.67552e-21)
(1.23454 -0.0357417 0)
(1.249 -0.0176979 -1.68521e-21)
(-0.184477 0.206248 1.1488e-20)
(-0.19042 0.229584 1.34754e-19)
(-0.100852 0.170124 -8.23325e-20)
(-0.113066 0.203993 -1.61976e-19)
(0.0312875 0.102368 3.45132e-21)
(-0.00116356 0.15665 0)
(0.245087 -0.0106687 3.57553e-21)
(0.185892 0.0624587 -4.41438e-19)
(0.537385 -0.148659 0)
(0.489698 -0.0690131 1.36434e-19)
(0.83704 -0.271653 8.3242e-20)
(0.833782 -0.197931 0)
(1.07015 -0.346402 -2.85726e-19)
(1.10784 -0.292295 8.44172e-20)
(1.20862 -0.369077 -2.99497e-19)
(1.26282 -0.335479 -2.08407e-19)
(1.2738 -0.359042 4.27065e-20)
(1.32692 -0.335513 2.51263e-20)
(1.29833 -0.332686 6.56415e-20)
(1.34791 -0.318044 8.3474e-20)
(1.30052 -0.298032 1.59051e-20)
(1.3446 -0.290503 3.74547e-21)
(1.29181 -0.261593 -1.15639e-20)
(1.32966 -0.25734 -4.46432e-20)
(1.28017 -0.226824 6.53775e-20)
(1.3123 -0.225281 2.81906e-21)
(1.2691 -0.194945 7.39945e-21)
(1.29614 -0.195744 3.59706e-20)
(1.25989 -0.166224 -2.54844e-20)
(1.28248 -0.169025 -5.93921e-21)
(1.25298 -0.140641 2.05603e-20)
(1.27158 -0.145045 -1.7814e-20)
(1.24824 -0.118169 2.21647e-21)
(1.26323 -0.123727 -2.155e-21)
(1.24527 -0.0986548 -1.02467e-20)
(1.25699 -0.104999 -6.9175e-21)
(1.24356 -0.0817585 -2.11614e-21)
(1.25239 -0.0886812 1.67331e-20)
(1.24239 -0.0673487 -3.92616e-21)
(1.24843 -0.0743944 -5.728e-21)
(1.24102 -0.0551892 -1.68432e-22)
(1.24454 -0.0619996 -5.09988e-21)
(1.23938 -0.0446279 0)
(1.24062 -0.051698 3.40048e-22)
(1.23711 -0.0352295 0)
(1.23689 -0.0425152 0)
(1.23926 -0.0236987 0)
(-0.121 0.227591 -3.27114e-20)
(-0.138322 0.248045 8.95447e-20)
(-0.0130058 0.193261 -8.3036e-20)
(-0.0409669 0.22349 -8.13327e-20)
(0.156619 0.12301 -4.38828e-19)
(0.0973976 0.17406 1.60079e-19)
(0.43028 0.00865557 -3.33331e-19)
(0.341774 0.0768097 -5.94255e-19)
(0.776115 -0.121698 1.38507e-19)
(0.717666 -0.0461571 1.36434e-19)
(1.08626 -0.229713 0)
(1.08365 -0.15796 1.03437e-19)
(1.28635 -0.291315 1.38457e-19)
(1.32354 -0.235929 -9.55976e-20)
(1.37594 -0.30693 1.41931e-19)
(1.42326 -0.271116 1.40259e-19)
(1.40005 -0.296872 7.44866e-20)
(1.44457 -0.269874 -8.70546e-20)
(1.39607 -0.275854 2.19082e-20)
(1.43853 -0.257535 1.56203e-19)
(1.37664 -0.249345 -5.6149e-20)
(1.41364 -0.236882 -5.47735e-20)
(1.3524 -0.220926 -2.98407e-20)
(1.38396 -0.212216 3.91299e-20)
(1.32985 -0.194227 -2.95149e-20)
(1.35695 -0.188253 -2.9258e-20)
(1.3106 -0.169851 2.79626e-20)
(1.33383 -0.166064 0)
(1.29488 -0.147873 4.30423e-21)
(1.31467 -0.145912 -9.36016e-22)
(1.28235 -0.128179 -4.06481e-20)
(1.29902 -0.127757 -1.99968e-20)
(1.27242 -0.110666 -1.0928e-20)
(1.28619 -0.111501 6.1024e-21)
(1.26445 -0.0952509 2.03423e-20)
(1.2755 -0.0970592 1.36044e-20)
(1.2576 -0.0815798 1.53712e-20)
(1.26628 -0.0842925 1.33046e-20)
(1.25104 -0.0691801 -3.76514e-21)
(1.25757 -0.0729323 -4.41116e-21)
(1.24459 -0.0584655 -7.6125e-21)
(1.24868 -0.0626747 -5.34505e-21)
(1.23798 -0.0495967 3.42073e-22)
(1.23977 -0.0535869 7.33769e-22)
(1.22756 -0.0396479 0)
(1.23005 -0.0438072 8.83933e-21)
(1.21956 -0.0241114 -8.65307e-21)
(-0.0609832 0.244326 4.43682e-20)
(-0.0901793 0.262618 -9.67848e-23)
(0.070776 0.209018 1.56727e-19)
(0.0254721 0.236635 8.43958e-20)
(0.284694 0.135545 4.2208e-20)
(0.19383 0.181871 -2.2762e-19)
(0.626701 0.0277039 -1.49572e-19)
(0.515397 0.0877903 -4.73477e-21)
(1.01074 -0.0873165 1.01866e-19)
(0.95293 -0.0147194 -1.30438e-19)
(1.30044 -0.175378 -3.29302e-20)
(1.30301 -0.1061 5.76853e-21)
(1.44683 -0.223681 -9.68256e-20)
(1.48136 -0.1692 1.44426e-19)
(1.48688 -0.236124 -8.60165e-20)
(1.52571 -0.200103 -1.34657e-19)
(1.48173 -0.230188 -9.01883e-21)
(1.51818 -0.201674 8.12133e-20)
(1.45753 -0.217626 8.17213e-20)
(1.49122 -0.19605 3.16159e-21)
(1.42296 -0.198901 4.01996e-20)
(1.45204 -0.183102 0)
(1.39004 -0.17891 4.09744e-20)
(1.41503 -0.167364 7.83078e-20)
(1.36197 -0.159808 0)
(1.38363 -0.151333 0)
(1.33864 -0.142005 -2.88908e-20)
(1.3573 -0.135894 0)
(1.31933 -0.125714 -2.43246e-20)
(1.33527 -0.121436 -1.02973e-21)
(1.30322 -0.110986 2.53259e-20)
(1.3167 -0.108125 -1.98242e-20)
(1.28949 -0.0977707 2.93743e-20)
(1.30077 -0.0960163 1.98422e-20)
(1.2774 -0.0859735 6.70043e-21)
(1.28669 -0.0850803 7.10086e-22)
(1.2662 -0.0754663 -6.6821e-21)
(1.27372 -0.0752125 1.24237e-23)
(1.25529 -0.0660006 -3.88896e-21)
(1.26109 -0.0662385 5.51315e-21)
(1.24408 -0.0572768 4.20461e-21)
(1.248 -0.0580479 -1.5824e-21)
(1.23094 -0.0486306 9.18276e-21)
(1.23386 -0.0500156 -1.49549e-21)
(1.21198 -0.0373807 8.80467e-20)
(1.21781 -0.0393061 1.99775e-20)
(1.1978 -0.0191852 -2.16612e-20)
(-0.00688934 0.255554 3.79053e-20)
(-0.0478692 0.272939 3.023e-23)
(0.150585 0.216172 -2.7975e-19)
(0.0841286 0.241697 8.43958e-20)
(0.423911 0.141583 -2.55178e-19)
(0.296308 0.180907 -7.46405e-20)
(0.83618 0.0514159 2.50093e-20)
(0.716183 0.104665 1.42378e-19)
(1.22712 -0.040626 -2.28604e-19)
(1.18001 0.0289248 -2.44223e-19)
(1.46389 -0.111048 1.78696e-19)
(1.47212 -0.0444068 9.67555e-20)
(1.54918 -0.150445 7.79195e-20)
(1.57929 -0.0986725 1.57432e-19)
(1.55339 -0.166025 2.99987e-20)
(1.58351 -0.127595 -3.4498e-19)
(1.52789 -0.166524 9.68331e-20)
(1.5565 -0.136453 1.72424e-19)
(1.48663 -0.160659 -7.85267e-20)
(1.51349 -0.1373 -1.38659e-19)
(1.44512 -0.150517 3.73395e-20)
(1.46909 -0.132245 -4.57287e-20)