/*--------------------------------*- C++ -*----------------------------------*\
  =========                 |
  \\      /  F ield         | OpenFOAM: The Open Source CFD Toolbox
   \\    /   O peration     | Website:  https://openfoam.org
    \\  /    A nd           | Version:  11
     \\/     M anipulation  |
\*---------------------------------------------------------------------------*/
FoamFile
{
    format      ascii;
    class       volScalarField;
    location    "1.58";
    object      k;
}
// * * * * * * * * * * * * * * * * * * * * * * * * * * * * * * * * * * * * * //

dimensions      [0 2 -2 0 0 0 0];

internalField   nonuniform List<scalar> 
2880
(
0.00376806
0.00753508
0.0184511
0.0385772
0.0712487
0.115336
0.0159693
0.0234753
0.0398451
0.0618854
0.0914276
0.12718
0.0200769
0.0330813
0.05263
0.0762456
0.104917
0.137007
0.0222892
0.039912
0.0614671
0.0860129
0.114186
0.14478
0.0239273
0.0452593
0.0680062
0.0929953
0.120922
0.151304
0.0248847
0.0495644
0.0728601
0.097968
0.125819
0.156686
0.025496
0.053032
0.0763569
0.101348
0.129201
0.160878
0.0265009
0.0555589
0.0787101
0.103387
0.131225
0.163832
0.0273409
0.0572748
0.0800734
0.104247
0.131981
0.165537
0.0279252
0.0582655
0.0805616
0.104061
0.13155
0.166022
0.028214
0.0585946
0.0802941
0.102884
0.129964
0.165344
0.0281973
0.0583273
0.0792861
0.100812
0.127296
0.163583
0.0278593
0.05746
0.0776293
0.0979262
0.123609
0.16082
0.0272275
0.0560217
0.0753813
0.094309
0.118978
0.157133
0.0264145
0.0539983
0.0725934
0.0900495
0.1135
0.152648
0.0255361
0.0514047
0.0693136
0.0852424
0.107291
0.147591
0.0249319
0.0483329
0.0655966
0.079985
0.100489
0.142268
0.0248735
0.0449782
0.0615133
0.074371
0.0932308
0.136648
0.0242939
0.0416323
0.0571368
0.068473
0.0855679
0.130496
0.0231989
0.0381951
0.0524556
0.0623116
0.0774449
0.123331
0.0216225
0.0344481
0.0472807
0.0558006
0.0687147
0.114593
0.0195803
0.029927
0.0410732
0.048531
0.0589475
0.104393
0.015722
0.0232091
0.0322379
0.0391054
0.0464958
0.0907109
0.00392373
0.00828318
0.0141229
0.0201638
0.0253149
0.0607199
0.156456
0.16998
0.180394
0.191991
0.205473
0.219895
0.233024
0.241923
0.243765
0.236015
0.219923
0.197974
0.174087
0.152865
0.136779
0.12578
0.118366
0.11319
0.109625
0.107179
0.105786
0.105701
0.106872
0.109491
0.162121
0.180309
0.195415
0.21171
0.229036
0.245222
0.256946
0.260526
0.253261
0.237156
0.212755
0.185496
0.160903
0.142163
0.129325
0.120685
0.114565
0.110152
0.107045
0.105195
0.104795
0.105537
0.107611
0.110525
0.17012
0.193736
0.2142
0.235013
0.254693
0.269723
0.275467
0.269245
0.253543
0.226824
0.196458
0.168845
0.147754
0.133238
0.123315
0.116108
0.110609
0.106482
0.103779
0.102678
0.103024
0.104535
0.107428
0.110471
0.178775
0.208565
0.234798
0.259267
0.278806
0.287866
0.28338
0.26885
0.240376
0.207184
0.176845
0.153662
0.1376
0.126388
0.117941
0.111177
0.105804
0.101941
0.0997815
0.099425
0.100284
0.10255
0.105813
0.108872
0.187397
0.223462
0.255157
0.281396
0.296622
0.295011
0.282444
0.254049
0.218159
0.185288
0.160171
0.142612
0.130058
0.12028
0.112158
0.105405
0.100168
0.0966882
0.0951113
0.0952855
0.0966365
0.0993837
0.10276
0.105719
0.195396
0.237427
0.273417
0.298417
0.303519
0.294203
0.267537
0.229773
0.194712
0.167753
0.148644
0.134629
0.123399
0.113825
0.105613
0.0988951
0.0939318
0.0909269
0.0899129
0.0904366
0.0922513
0.0952
0.0985718
0.101396
0.202379
0.249777
0.287997
0.306069
0.302528
0.281178
0.242706
0.205693
0.176836
0.156049
0.140429
0.127608
0.116467
0.106714
0.098452
0.091923
0.0873543
0.0848406
0.0842862
0.0850878
0.087188
0.0901803
0.0934573
0.0961256
0.20816
0.260107
0.297427
0.30609
0.292147
0.257609
0.218813
0.187881
0.16523
0.147842
0.133267
0.120399
0.108977
0.0990978
0.0909651
0.0847788
0.0806606
0.0785846
0.0783577
0.0793392
0.0815586
0.0844869
0.0876072
0.0901077
0.212718
0.2682
0.300217
0.297783
0.273464
0.234111
0.201206
0.176596
0.157308
0.140804
0.126003
0.112714
0.101072
0.0912651
0.0834411
0.077687
0.0740028
0.0722656
0.0722269
0.0732843
0.0754802
0.0782621
0.0811835
0.0835112
0.216159
0.274042
0.29722
0.285028
0.25151
0.217024
0.190451
0.169218
0.150664
0.133723
0.118313
0.104671
0.0930244
0.083492
0.0760956
0.0707912
0.0674724
0.0659535
0.0659678
0.0670011
0.0690512
0.071621
0.0743144
0.0764715
0.218607
0.277221
0.288433
0.269132
0.234915
0.206825
0.183863
0.163294
0.14406
0.126249
0.110286
0.0965163
0.0850897
0.0759811
0.0690654
0.0641769
0.0611285
0.0597041
0.059654
0.0605531
0.0623608
0.0646601
0.0671005
0.0690922
0.220159
0.277464
0.277354
0.254235
0.225482
0.201344
0.179074
0.157543
0.137081
0.11842
0.102135
0.0884878
0.0774619
0.0688634
0.0624284
0.0578931
0.0550167
0.053575
0.0533479
0.0540184
0.0554893
0.0574591
0.0596185
0.0614477
0.220782
0.275002
0.26805
0.244759
0.221057
0.198066
0.17463
0.151429
0.129696
0.110413
0.0940826
0.0807744
0.07027
0.0622134
0.0562262
0.0519731
0.0491807
0.0476287
0.0471307
0.047476
0.0485181
0.050088
0.0519244
0.0535864
0.220154
0.270865
0.260933
0.241459
0.219751
0.195547
0.169912
0.144851
0.122041
0.102434
0.0863151
0.0735076
0.0635907
0.0560697
0.0504823
0.0464471
0.0436724
0.0419436
0.0411024
0.0410228
0.0415483
0.0426167
0.0440521
0.0455201
0.217859
0.2673
0.258055
0.241443
0.219763
0.192934
0.164679
0.137873
0.114291
0.0946615
0.0789678
0.0667703
0.0574652
0.0504517
0.0452146
0.0413489
0.0385542
0.0366179
0.0353961
0.034791
0.0347273
0.0351286
0.035997
0.0371759
0.214164
0.265482
0.257936
0.244565
0.22015
0.189848
0.158901
0.130625
0.106613
0.0872353
0.072131
0.0606078
0.0519115
0.0453697
0.0404418
0.0367176
0.0338958
0.0317615
0.0301669
0.0290126
0.0282273
0.0277703
0.0277042
0.0282552
0.211067
0.265421
0.262059
0.249375
0.220497
0.186104
0.152627
0.123249
0.0991463
0.0802519
0.0658543
0.0550366
0.0469319
0.0408284
0.036183
0.0325941
0.0297673
0.0274855
0.0255852
0.0239353
0.0224105
0.0208725
0.0192216
0.0179379
0.20929
0.26969
0.269782
0.254858
0.220064
0.181565
0.145944
0.115874
0.0919947
0.0737688
0.0601532
0.0500477
0.0425117
0.0368218
0.0324488
0.0290103
0.026227
0.0238871
0.0218186
0.0198636
0.0178484
0.0155482
0.0126198
0.00795808
0.210965
0.278363
0.280242
0.259275
0.218223
0.176238
0.13897
0.108611
0.0852261
0.0678056
0.0550119
0.0456071
0.0386141
0.03332
0.0292218
0.0259642
0.0232909
0.0210089
0.0189633
0.0170158
0.0150254
0.0128376
0.0102579
0.00663305
0.21859
0.291661
0.292174
0.262155
0.215513
0.170302
0.131818
0.101537
0.0788714
0.062351
0.0503895
0.0416589
0.035177
0.0302588
0.0264345
0.0233791
0.0208613
0.01871
0.0167906
0.0149854
0.013174
0.0112276
0.0090153
0.00615814
0.23193
0.30916
0.304894
0.263954
0.211676
0.163727
0.124532
0.0946903
0.0729336
0.0573726
0.0462307
0.0381352
0.0321256
0.0275551
0.0239903
0.0211353
0.0187812
0.0167747
0.0149961
0.0133408
0.0117015
0.00997126
0.00807136
0.005783
0.251975
0.330566
0.316554
0.264086
0.206498
0.156497
0.117151
0.0880934
0.0674003
0.0528285
0.0424768
0.0349705
0.0293903
0.0251347
0.0218067
0.0191372
0.0169373
0.0150683
0.0134227
0.0119069
0.0104271
0.00889835
0.00728191
0.00545379
0.281342
0.354919
0.323404
0.261055
0.199735
0.148613
0.109714
0.0817628
0.0622518
0.0486753
0.0390743
0.0321092
0.0269167
0.022944
0.0198296
0.0173292
0.0152712
0.0135303
0.0120097
0.0106263
0.0092993
0.00796339
0.00660461
0.00515188
0.325951
0.377618
0.32626
0.255538
0.19144
0.140133
0.102275
0.0757143
0.0574695
0.0448749
0.0359793
0.0295084
0.0246655
0.0209476
0.0180268
0.0156818
0.0137565
0.0121374
0.0107373
0.00948275
0.00830428
0.00715146
0.00602437
0.00488184
0.0054435
0.0358452
0.0773989
0.124336
0.152922
0.198858
0.0192687
0.0713099
0.118486
0.166984
0.222724
0.332205
0.0282592
0.0889318
0.140037
0.192565
0.256226
0.347465
0.0356063
0.100349
0.153646
0.207867
0.270417
0.342964
0.041931
0.108797
0.16293
0.21688
0.27513
0.332685
0.0471928
0.115376
0.169367
0.221758
0.274839
0.320618
0.0514048
0.120525
0.173689
0.223784
0.271521
0.308094
0.0546214
0.124422
0.176305
0.223789
0.266509
0.295807
0.0569167
0.127139
0.17748
0.222341
0.260633
0.28417
0.0583711
0.128718
0.177415
0.219851
0.254434
0.273424
0.0590668
0.1292
0.17628
0.216622
0.248224
0.263759
0.0590853
0.128634
0.174223
0.212878
0.242202
0.255283
0.0585213
0.127065
0.171358
0.208764
0.236515
0.248042
0.0574114
0.124536
0.167758
0.20435
0.231244
0.242045
0.0556582
0.1211
0.163453
0.199643
0.226406
0.237287
0.0532241
0.116778
0.158418
0.194579
0.22195
0.233755
0.0500894
0.111553
0.152569
0.189018
0.217739
0.231437
0.046239
0.105365
0.145752
0.182742
0.213511
0.230316
0.0416671
0.0980892
0.137722
0.175434
0.208824
0.230381
0.0364159
0.089497
0.128092
0.166566
0.202983
0.231685
0.0306714
0.0791587
0.116227
0.155371
0.19491
0.233728
0.0249934
0.0661561
0.100945
0.140617
0.182541
0.234327
0.0180894
0.0479811
0.079484
0.12001
0.161309
0.223966
0.00482597
0.0198891
0.0482925
0.0912754
0.122131
0.12845
0.387164
0.387832
0.321991
0.246445
0.181509
0.131141
0.0949093
0.0699749
0.0530428
0.0413985
0.0331581
0.0271368
0.02261
0.0191233
0.0163805
0.0141806
0.0123816
0.0108802
0.0095978
0.00846897
0.00743377
0.00645249
0.00553158
0.00464584
0.419624
0.383913
0.309123
0.233977
0.17025
0.121867
0.0877416
0.0645872
0.0489681
0.0382238
0.0305853
0.0249721
0.0207324
0.0174578
0.0148809
0.0128187
0.0111416
0.00975523
0.00858806
0.00758151
0.006683
0.00585999
0.00512007
0.00444533
0.404402
0.365986
0.292605
0.219517
0.15831
0.112644
0.0809195
0.059595
0.0452422
0.0353326
0.0282415
0.0229982
0.0190208
0.0159428
0.0135222
0.0115921
0.0100335
0.00875954
0.00770485
0.00681614
0.00604635
0.00536714
0.00478355
0.00427957
0.382438
0.344351
0.274105
0.204166
0.146317
0.103781
0.0745644
0.0550267
0.0418574
0.0327081
0.0261113
0.0212035
0.0174667
0.0145723
0.0123001
0.0104971
0.00905365
0.0078893
0.00694353
0.00616716
0.00551687
0.004966
0.00451462
0.00414578
0.359933
0.32173
0.255058
0.18886
0.134778
0.095506
0.0687505
0.0508898
0.0388
0.0303341
0.0241815
0.0195782
0.0160635
0.013341
0.0112101
0.00952946
0.00819739
0.00713898
0.00629765
0.005627
0.0050858
0.00464699
0.00430459
0.00403994
0.338531
0.299803
0.236544
0.174259
0.124028
0.0879479
0.0635055
0.0471743
0.0360516
0.0281948
0.0224405
0.0181141
0.0148047
0.0122437
0.0102469
0.00868341
0.00745831
0.00650138
0.00575899
0.00518632
0.00474263
0.00439912
0.00414403
0.00395763
0.318664
0.279431
0.219218
0.160754
0.114244
0.0811569
0.0588228
0.0438584
0.0335915
0.0262746
0.0208773
0.0168032
0.0136837
0.011274
0.00940412
0.00795201
0.00682869
0.00596786
0.0053179
0.00483426
0.00447555
0.00421076
0.00402367
0.0038947
0.300545
0.260993
0.203421
0.148543
0.105495
0.0751289
0.0546744
0.0409137
0.0313983
0.0245584
0.0194813
0.0156372
0.0126933
0.0104251
0.00867438
0.00732721
0.00629974
0.00552879
0.00496367
0.00455903
0.00427226
0.0040706
0.00393518
0.00384753
0.284361
0.244555
0.189292
0.137686
0.0977706
0.0698248
0.0510199
0.0383092
0.0294503
0.0230317
0.0182422
0.0146078
0.0118259
0.00968896
0.00804946
0.00680026
0.00586206
0.00517393
0.00468509
0.00434865
0.00412091
0.00396851
0.00387156
0.00381309
0.270161
0.230122
0.176851
0.128161
0.0910154
0.065186
0.047813
0.0360131
0.0277265
0.0216804
0.0171494
0.0137062
0.0110731
0.00905738
0.0075207
0.00636205
0.00550597
0.00489288
0.00447099
0.00419166
0.00401086
0.00389591
0.0038271
0.00378885
0.257932
0.217648
0.166044
0.119889
0.0851468
0.0611448
0.0450061
0.0339942
0.026207
0.0204912
0.016193
0.0129236
0.0104265
0.00852186
0.00707935
0.00600347
0.00522183
0.00467536
0.00431069
0.00407773
0.00393307
0.00384576
0.00379719
0.00377251
0.247642
0.207052
0.156776
0.112766
0.0800705
0.0576314
0.042553
0.0322228
0.0248733
0.0194514
0.0153629
0.0122512
0.00987794
0.00807415
0.006717
0.00571573
0.00500036
0.00451163
0.00419447
0.00399799
0.00388029
0.00381264
0.00377825
0.003762
0.239252
0.198243
0.148935
0.106673
0.0756885
0.0545778
0.0404101
0.030672
0.0237079
0.0185487
0.0146495
0.0116806
0.00941943
0.00770662
0.00642594
0.00549089
0.00483324
0.00439313
0.0041141
0.00394534
0.00384693
0.0037931
0.00376718
0.00375575
0.232741
0.191133
0.142395
0.10149
0.071908
0.0519211
0.0385376
0.0293164
0.0226943
0.0177712
0.0140433
0.0112039
0.00904368
0.00741228
0.00619932
0.00532196
0.00471327
0.0043127
0.00406302
0.00391429
0.00382888
0.00378336
0.0037619
0.0037527
0.228113
0.185646
0.137033
0.0970975
0.0686415
0.0496034
0.0368988
0.028133
0.0218168
0.0171074
0.0135352
0.0108131
0.00874371
0.00718457
0.00603071
0.00520249
0.00463396
0.00426417
0.00403583
0.0039005
0.00382299
0.00378134
0.00376106
0.00375203
0.225423
0.181733
0.132728
0.0933809
0.0658043
0.04757
0.0354594
0.0270994
0.0210601
0.016546
0.0131163
0.0105007
0.00851279
0.00701728
0.00591415
0.00512658
0.00458961
0.00424231
0.00402817
0.00390057
0.00382647
0.00378498
0.00376333
0.00375261
0.224786
0.179368
0.129359
0.0902224
0.0633127
0.0457678
0.0341861
0.0261943
0.0204096
0.016076
0.0127776
0.0102594
0.00834459
0.00690473
0.00584435
0.00508929
0.00457578
0.00424314
0.00403685
0.00391207
0.00383761
0.00379382
0.00376862
0.00375426
0.226341
0.178547
0.126792
0.087497
0.0610826
0.0441453
0.0330471
0.025397
0.0198505
0.0156863
0.0125107
0.0100821
0.00823319
0.00684175
0.00581673
0.0050864
0.0045877
0.00426373
0.00405989
0.00393373
0.00385566
0.00380698
0.00377637
0.00375683
0.23034
0.179262
0.124867
0.0850747
0.0590301
0.0426519
0.0320111
0.0246869
0.0193683
0.0153663
0.0123072
0.00996232
0.00817313
0.00682377
0.00582679
0.00511318
0.0046246
0.00430261
0.00409626
0.00396498
0.00388038
0.00382443
0.00378654
0.00376038
0.23697
0.181451
0.123422
0.0828069
0.0570681
0.0412373
0.0310476
0.0240439
0.0189488
0.0151052
0.012159
0.00989366
0.00815938
0.00684615
0.00587127
0.00517041
0.00468434
0.00435892
0.00414566
0.00400584
0.00391196
0.00384651
0.00379954
0.00376524
0.246353
0.184847
0.122149
0.0805315
0.0551077
0.0398526
0.0301271
0.0234488
0.0185786
0.0148929
0.0120586
0.00987051
0.00818743
0.00690649
0.00595015
0.00525515
0.00476633
0.00443266
0.00420844
0.00405681
0.00395103
0.00387388
0.00381604
0.00377202
0.257547
0.188608
0.120533
0.07803
0.0530564
0.0384527
0.029224
0.0228859
0.0182475
0.0147233
0.0120007
0.00988825
0.00825467
0.00700321
0.0060604
0.0053668
0.00487073
0.00452455
0.00428565
0.00411905
0.00399867
0.00390758
0.003837
0.00378143
0.265929
0.19055
0.1179
0.0750507
0.0508263
0.0370003
0.0283185
0.0223428
0.0179462
0.0145882
0.0119789
0.00994227
0.00835705
0.00713284
0.0062007
0.00550518
0.0049982
0.00463589
0.00437889
0.0041942
0.00405643
0.00394897
0.00386357
0.00379439
0.259621
0.187054
0.113337
0.0713202
0.0483485
0.0354745
0.0274008
0.0218123
0.017669
0.0144822
0.0119885
0.0100291
0.00849197
0.0072937
0.00637033
0.00567041
0.0051497
0.00476822
0.00449
0.00428419
0.00412621
0.00399985
0.00389714
0.00381204
0.00562641
0.010498
0.0182127
0.0290338
0.0625487
0.143171
0.0190518
0.030298
0.0443403
0.0588633
0.0917737
0.153079
0.0229411
0.0418192
0.0604957
0.0799731
0.116321
0.156609
0.0248726
0.0510534
0.072707
0.0945874
0.127787
0.150952
0.026904
0.059373
0.082146
0.103935
0.128359
0.139964
0.0308403
0.0665536
0.0893788
0.109806
0.125796
0.129884
0.0342542
0.0726416
0.094974
0.112276
0.121003
0.120739
0.0371316
0.0778859
0.0994353
0.112534
0.116752
0.112406
0.0394669
0.0824709
0.102916
0.112339
0.113113
0.105236
0.0411994
0.0864226
0.105746
0.112506
0.110136
0.0994705
0.0422807
0.0897388
0.108443
0.11324
0.108135
0.0952024
0.0426798
0.0923919
0.111248
0.114932
0.107592
0.0925871
0.0424446
0.0943146
0.114173
0.117533
0.108209
0.0919554
0.0416287
0.0954066
0.117072
0.121006
0.110633
0.0928153
0.0403494
0.0955622
0.119683
0.125142
0.115172
0.0961865
0.0387476
0.0946999
0.121676
0.129697
0.121337
0.102282
0.0369158
0.0927027
0.122752
0.134314
0.128612
0.11108
0.0346534
0.0895754
0.122653
0.138491
0.136464
0.122267
0.0318341
0.0853355
0.121135
0.141471
0.14444
0.134779
0.02829
0.0799073
0.117705
0.142212
0.151625
0.146935
0.0251674
0.0729086
0.111794
0.139944
0.155687
0.157415
0.0229242
0.0636072
0.102127
0.132149
0.153477
0.164164
0.0185985
0.0499294
0.0856396
0.114852
0.140542
0.158809
0.00503418
0.0221438
0.0506173
0.0766507
0.104039
0.117116
0.234397
0.174385
0.105883
0.0666099
0.0456079
0.0338828
0.0264756
0.0212948
0.0174149
0.0144041
0.0120286
0.0101473
0.00865826
0.00748518
0.00656928
0.00586322
0.00532666
0.00492354
0.0046214
0.00439168
0.00421065
0.0040622
0.00393779
0.00383458
0.202828
0.152888
0.0956536
0.061223
0.042729
0.0322766
0.025566
0.0208017
0.0171889
0.0143563
0.0121002
0.0102975
0.00885647
0.00770814
0.00679893
0.00608563
0.00553169
0.0051049
0.00477623
0.0045195
0.00431185
0.00413721
0.00398677
0.00386222
0.176195
0.131979
0.0849345
0.055797
0.03991
0.0307253
0.0247026
0.0203495
0.0170005
0.0143437
0.0122071
0.0104826
0.00908922
0.0079653
0.0070624
0.00634128
0.00576898
0.00531678
0.00495893
0.00467162
0.00443293
0.00422724
0.00404684
0.00389637
0.154153
0.113876
0.0749645
0.0507391
0.037282
0.0292855
0.0239156
0.0199566
0.0168645
0.0143762
0.0123559
0.0107077
0.00936093
0.00826091
0.0073641
0.00663493
0.00604359
0.00556446
0.00517475
0.00485296
0.00457847
0.0043369
0.00412298
0.00393993
0.135448
0.0987127
0.0662893
0.0462659
0.034933
0.0280031
0.0232322
0.0196405
0.0167903
0.0144639
0.0125545
0.0109794
0.00967736
0.00860028
0.00770917
0.00697174
0.0063609
0.00585362
0.00542966
0.00506976
0.00475475
0.00447187
0.00421848
0.00399469
0.119612
0.086257
0.0590287
0.0424505
0.03291
0.0269114
0.0226763
0.0194183
0.0167884
0.0146175
0.0128125
0.0113057
0.0100453
0.00898951
0.00810329
0.00735726
0.00672658
0.00619022
0.00573003
0.00532861
0.0049681
0.00463737
0.00433678
0.00406207
0.106427
0.0761895
0.0531086
0.0392944
0.031235
0.0260349
0.02227
0.0193109
0.0168819
0.0148509
0.0131405
0.0116956
0.0104728
0.00943558
0.00855285
0.00779762
0.00714676
0.00658072
0.00608275
0.00563671
0.00522553
0.00483938
0.00448209
0.00414397
0.0956425
0.0681872
0.0483979
0.0367729
0.0299191
0.0253919
0.0220322
0.019336
0.0170859
0.015178
0.0135506
0.0121595
0.0109686
0.00994646
0.00906508
0.00829956
0.00762807
0.0070319
0.00649496
0.00600158
0.00553459
0.00508474
0.00465963
0.00424284
0.0870138
0.0619667
0.0447731
0.0348601
0.0289712
0.0250002
0.0219827
0.0195124
0.0174166
0.0156137
0.0140562
0.0127092
0.0115432
0.0105313
0.00964815
0.00887058
0.00817758
0.00755073
0.00697385
0.00643077
0.00590313
0.00538098
0.00487542
0.00436146
0.0803278
0.0573024
0.0421338
0.0335347
0.0284024
0.0248815
0.0221419
0.0198598
0.0178918
0.0161744
0.0146719
0.0133578
0.0122084
0.0112006
0.0103114
0.00951914
0.00880308
0.0081446
0.00752671
0.00693181
0.00633905
0.00573598
0.00513604
0.00450268
0.0754342
0.0540326
0.040408
0.0327866
0.0282322
0.025035
0.0225291
0.0203986
0.0185311
0.0168782
0.0154145
0.0141206
0.012978
0.0119668
0.0110663
0.0102554
0.0095138
0.00882199
0.0081616
0.00751268
0.00685058
0.00615817
0.00544865
0.00466897
0.0722662
0.0520674
0.0395568
0.0326209
0.0284189
0.0255072
0.0231701
0.0211519
0.0193561
0.0177455
0.0163029
0.0150153
0.0138684
0.0128453
0.0119269
0.0110928
0.0103221
0.00959444
0.00888927
0.00818361
0.00744792
0.00665783
0.00582198
0.00486183
0.0709242
0.051446
0.0395333
0.0329577
0.0290613
0.0263154
0.0240908
0.0221453
0.0203914
0.0187998
0.0173595
0.0160631
0.0148999
0.0138558
0.0129126
0.0120503
0.0112471
0.0104808
0.00972816
0.00896246
0.00814841
0.00725229
0.00627104
0.00508249
0.0711606
0.0518225
0.0402939
0.033948
0.0301587
0.0274913
0.025322
0.0234085
0.0216657
0.0200684
0.0186108
0.0172897
0.0160981
0.015024
0.0140504
0.0131567
0.0123199
0.0115153
0.0107157
0.00988902
0.008993
0.0079831
0.00683491
0.00534045
0.0732681
0.0537049
0.0420418
0.0355948
0.0317571
0.0290755
0.0269014
0.0249773
0.0232131
0.0215843
0.0200885
0.0187264
0.0174946
0.0163832
0.0153764
0.0144537
0.0135907
0.01276
0.0119299
0.0110608
0.0100999
0.0089837
0.00764436
0.00571516
0.0778968
0.0572199
0.0448536
0.0379866
0.0339224
0.0311225
0.0288772
0.0268964
0.0250759
0.0233878
0.0218313
0.0204109
0.0191269
0.0179725
0.0169344
0.0159934
0.0151265
0.0143069
0.0135038
0.0126782
0.0117742
0.0106981
0.00924343
0.00709659
0.0852115
0.0626337
0.0489328
0.0412589
0.0367503
0.0337068
0.031313
0.029223
0.0273072
0.0255287
0.0238863
0.0223875
0.0210372
0.019833
0.0187659
0.0178212
0.0169817
0.0162302
0.0155534
0.0149455
0.0144066
0.0139481
0.0136614
0.0140162
0.0954734
0.0703192
0.0545679
0.0456093
0.0403778
0.0369311
0.0342931
0.0320314
0.0299749
0.0280699
0.0263113
0.0247088
0.0232721
0.0220047
0.0209037
0.0199613
0.0191691
0.0185225
0.0180267
0.0176996
0.0175696
0.0176876
0.0182017
0.0193328
0.10871
0.0805952
0.0620973
0.0512973
0.04499
0.0409333
0.0379289
0.0354182
0.0331665
0.031092
0.0291798
0.0274403
0.0258878
0.024533
0.0233809
0.022433
0.0216919
0.0211662
0.0208749
0.0208464
0.0210962
0.0216864
0.0227243
0.0242284
0.124401
0.0934694
0.0717865
0.0586065
0.0508134
0.0458874
0.0423611
0.039505
0.0369926
0.0346973
0.0325866
0.0306672
0.0289579
0.0274773
0.0262403
0.0252601
0.0245521
0.0241378
0.0240463
0.0242825
0.0248907
0.0258885
0.0273241
0.0291182
0.140543
0.108189
0.0835636
0.0677209
0.0580666
0.0519845
0.0477516
0.0444355
0.0415864
0.0390126
0.0366517
0.0345012
0.0325823
0.0309218
0.0295467
0.0284843
0.0277648
0.0274235
0.0274881
0.0279445
0.0288704
0.0302145
0.0319935
0.0340608
0.152855
0.123079
0.0966886
0.0784977
0.0668381
0.0593695
0.0542491
0.0503538
0.0470906
0.0441813
0.0415188
0.039083
0.0368935
0.0349856
0.0333996
0.0321798
0.0313747
0.0310364
0.0311812
0.0318009
0.0329771
0.0346156
0.0367046
0.0390478
0.153289
0.133533
0.108908
0.0898808
0.0767458
0.0679566
0.0618838
0.0573401
0.053614
0.0503338
0.0473356
0.0445717
0.042055
0.0398272
0.0379433
0.0364674
0.0354707
0.035028
0.0351649
0.0358432
0.0371849
0.0390571
0.0414239
0.0440501
0.138743
0.132709
0.117062
0.100014
0.0867137
0.0771876
0.0703922
0.0652853
0.0611391
0.0575177
0.0542006
0.0511066
0.0482357
0.0456324
0.0433661
0.0415228
0.0402016
0.0395065
0.0395251
0.0401229
0.0414937
0.0435185
0.0461177
0.0490308
0.00422737
0.010334
0.0206565
0.0318262
0.0404764
0.0520234
0.0167335
0.0279227
0.04287
0.0551391
0.0646426
0.0758236
0.0207169
0.0363604
0.0540717
0.0675347
0.0784105
0.0892149
0.0227088
0.0423197
0.0619943
0.0765712
0.0884918
0.0996421
0.0240566
0.0474356
0.0685371
0.084141
0.0970196
0.108781
0.0250328
0.0523118
0.0742966
0.090849
0.104661
0.117107
0.0272963
0.0568456
0.0794549
0.0969089
0.111648
0.12482
0.0292601
0.0609042
0.0840467
0.102381
0.118039
0.131953
0.0308998
0.0644081
0.0880599
0.10727
0.123823
0.138452
0.0321983
0.0673172
0.0914786
0.111555
0.128963
0.144241
0.0331619
0.0696075
0.0942889
0.115214
0.133418
0.149245
0.0338136
0.0712564
0.0964747
0.11822
0.137149
0.153409
0.0341759
0.0722355
0.0980135
0.120543
0.140126
0.156701
0.0341417
0.0725349
0.0988738
0.122152
0.142325
0.159114
0.0336768
0.0721502
0.0990028
0.123003
0.143724
0.160667
0.0327669
0.0710297
0.0983582
0.123038
0.144302
0.161397
0.0314069
0.069112
0.0968468
0.122186
0.144027
0.161355
0.0295931
0.0663094
0.0943523
0.120331
0.142831
0.160611
0.0272601
0.0624843
0.0907057
0.1173
0.140582
0.159101
0.0251387
0.0573929
0.0856449
0.112817
0.137033
0.156711
0.0235778
0.0507901
0.0787228
0.106415
0.13172
0.153155
0.0214657
0.0422092
0.0690556
0.0972145
0.12368
0.147607
0.0171496
0.029862
0.0544481
0.0832643
0.110848
0.137304
0.00425275
0.0111244
0.0314553
0.0610406
0.0898487
0.114714
0.125583
0.129263
0.12154
0.107698
0.0956881
0.086272
0.0791898
0.0737941
0.0694116
0.0655886
0.0620645
0.0587222
0.0555415
0.0525641
0.0498699
0.0475663
0.0457835
0.0446662
0.0443565
0.0447635
0.0459722
0.0480185
0.0507702
0.0539623
0.125149
0.137194
0.130966
0.116737
0.104127
0.0947575
0.0877188
0.0822821
0.0778938
0.0741076
0.0706004
0.0672098
0.0638836
0.0606463
0.057577
0.0547961
0.0524605
0.0507575
0.0498853
0.0499576
0.0507744
0.052613
0.0553872
0.0588318
0.121656
0.152679
0.151207
0.13832
0.120193
0.10692
0.097483
0.0910928
0.0864075
0.0826074
0.0792453
0.0760411
0.072834
0.069588
0.0663499
0.0632275
0.060383
0.0580311
0.0564281
0.0558351
0.0561811
0.057471
0.0600444
0.0636603
0.123259
0.156804
0.17125
0.167442
0.153571
0.133857
0.117481
0.10606
0.0980685
0.0924689
0.0883783
0.0849821
0.0818623
0.0787912
0.0756584
0.0724797
0.0693658
0.0665071
0.0641733
0.0626912
0.0623711
0.0629804
0.064859
0.0684792
0.128192
0.158174
0.18169
0.190948
0.18753
0.175748
0.15751
0.138952
0.123342
0.111567
0.103122
0.096891
0.0922788
0.0885251
0.085174
0.0819795
0.0788268
0.0757526
0.0729335
0.0706675
0.0693317
0.0693157
0.0703116
0.0733535
0.134626
0.161027
0.186931
0.205247
0.213126
0.211279
0.202985
0.187539
0.169628
0.151537
0.135106
0.121681
0.111226
0.103376
0.0974553
0.0927846
0.0888591
0.0853753
0.0821985
0.0793894
0.0772018
0.0761139
0.0764163
0.078576
0.141626
0.165511
0.190962
0.21322
0.228843
0.236666
0.236582
0.231337
0.219688
0.20374
0.1856
0.166946
0.149273
0.133725
0.12094
0.11092
0.103249
0.0973388
0.0926518
0.0888374
0.0857526
0.0835057
0.0828367
0.0841013
0.148619
0.170799
0.194968
0.218121
0.237473
0.251349
0.259108
0.260697
0.257469
0.249103
0.235779
0.219233
0.20061
0.181186
0.162275
0.145031
0.130257
0.11827
0.108916
0.101768
0.0963497
0.0923011
0.0897073
0.0900275
0.155212
0.17614
0.198782
0.221299
0.241666
0.258374
0.27061
0.277978
0.280467
0.278616
0.272605
0.261788
0.247455
0.230341
0.211328
0.191477
0.171914
0.153707
0.13771
0.124393
0.113822
0.105786
0.0996534
0.0975504
0.161129
0.180973
0.201939
0.22298
0.242676
0.259891
0.27385
0.284135
0.290606
0.293302
0.292352
0.288022
0.279464
0.267411
0.252433
0.235114
0.216196
0.196529
0.177071
0.158783
0.142497
0.128738
0.117437
0.110527
0.166178
0.184905
0.20402
0.223041
0.241093
0.257337
0.271186
0.282285
0.290438
0.295529
0.297581
0.296767
0.293207
0.286519
0.27706
0.264924
0.25026
0.233494
0.215317
0.196498
0.17796
0.160444
0.144762
0.132927
0.170236
0.187693
0.204706
0.221345
0.237061
0.251339
0.263787
0.274163
0.282339
0.28826
0.291925
0.293335
0.292523
0.289404
0.28384
0.276196
0.266686
0.255288
0.241945
0.226738
0.210176
0.193022
0.176713
0.163954
0.173246
0.189229
0.20395
0.217874
0.23081
0.242505
0.25276
0.26146
0.268562
0.274071
0.278012
0.280386
0.28122
0.280484
0.278144
0.274093
0.268317
0.260911
0.252066
0.242067
0.230864
0.218656
0.206588
0.197622
0.175207
0.189493
0.201742
0.212766
0.222688
0.2315
0.239184
0.245759
0.251272
0.255783
0.259334
0.261949
0.263602
0.264269
0.263929
0.262503
0.259925
0.25614
0.251107
0.244868
0.237889
0.230956
0.224962
0.220447
0.176165
0.188585
0.198241
0.206307
0.213182
0.219081
0.224153
0.228543
0.232397
0.235826
0.238877
0.24155
0.243786
0.245492
0.24651
0.24684
0.246371
0.245034
0.242796
0.239697
0.23592
0.231845
0.228102
0.22411
0.176201
0.18663
0.193686
0.198891
0.202884
0.206067
0.208743
0.211178
0.213597
0.216142
0.218865
0.221723
0.224544
0.227134
0.229313
0.230938
0.231871
0.232095
0.231497
0.230059
0.227849
0.225067
0.221817
0.217204
0.175418
0.183807
0.188382
0.190991
0.192455
0.193325
0.194031
0.194899
0.196206
0.198121
0.200697
0.203836
0.207281
0.210683
0.213747
0.216311
0.21825
0.219472
0.219946
0.219633
0.218524
0.216571
0.213571
0.20956
0.173919
0.180317
0.182676
0.183131
0.182609
0.181736
0.181044
0.180826
0.181378
0.182935
0.185482
0.188819
0.192654
0.196477
0.199584
0.202103
0.204021
0.205313
0.205992
0.206066
0.205588
0.204406
0.202316
0.200315
0.171802
0.176367
0.177032
0.175946
0.174144
0.172325
0.171051
0.170695
0.171682
0.174
0.17703
0.179907
0.182153
0.184339
0.185549
0.185937
0.185688
0.185014
0.183962
0.182509
0.180552
0.178071
0.175348
0.174084
0.169151
0.172318
0.171898
0.170085
0.167992
0.166341
0.165777
0.166616
0.169007
0.172416
0.175869
0.178146
0.178576
0.176122
0.172654
0.16853
0.16419
0.159954
0.155854
0.151701
0.146935
0.141561
0.135852
0.132615
0.166057
0.168475
0.167823
0.166365
0.165229
0.165074
0.166373
0.169443
0.173884
0.178547
0.18188
0.182589
0.179979
0.172856
0.163978
0.154929
0.146558
0.139289
0.133092
0.127568
0.122482
0.117438
0.112797
0.111065
0.162508
0.165262
0.165576
0.165782
0.16684
0.169432
0.173975
0.180116
0.186763
0.192073
0.194186
0.192396
0.18412
0.171877
0.158619
0.146221
0.135776
0.127526
0.121194
0.116212
0.111973
0.108163
0.105333
0.1051
0.158455
0.163505
0.166177
0.169094
0.173633
0.180252
0.188601
0.197584
0.205269
0.209292
0.208425
0.200275
0.185613
0.169006
0.152616
0.138802
0.128283
0.120653
0.115149
0.110955
0.107758
0.10537
0.104014
0.104531
0.15499
0.16457
0.170617
0.177595
0.186603
0.197466
0.209077
0.219367
0.225736
0.225929
0.218085
0.202343
0.182936
0.162654
0.145062
0.131839
0.12264
0.116282
0.111855
0.108681
0.106348
0.10515
0.105193
0.106603
)
;

boundaryField
{
    rotor
    {
        type            kqRWallFunction;
        value           nonuniform List<scalar> 
144
(
0.00376806
0.00753508
0.0184511
0.0385772
0.0712487
0.115336
0.00376806
0.0159693
0.0200769
0.0222892
0.0239273
0.0248847
0.025496
0.0265009
0.0273409
0.0279252
0.028214
0.0281973
0.0278593
0.0272275
0.0264145
0.0255361
0.0249319
0.0248735
0.0242939
0.0231989
0.0216225
0.0195803
0.015722
0.00392373
0.00392373
0.00828318
0.0141229
0.0201638
0.0253149
0.0607199
0.0054435
0.0358452
0.0773989
0.124336
0.152922
0.198858
0.0054435
0.0192687
0.0282592
0.0356063
0.041931
0.0471928
0.0514048
0.0546214
0.0569167
0.0583711
0.0590668
0.0590853
0.0585213
0.0574114
0.0556582
0.0532241
0.0500894
0.046239
0.0416671
0.0364159
0.0306714
0.0249934
0.0180894
0.00482597
0.00482597
0.0198891
0.0482925
0.0912754
0.122131
0.12845
0.00562641
0.010498
0.0182127
0.0290338
0.0625487
0.143171
0.00562641
0.0190518
0.0229411
0.0248726
0.026904
0.0308403
0.0342542
0.0371316
0.0394669
0.0411994
0.0422807
0.0426798
0.0424446
0.0416287
0.0403494
0.0387476
0.0369158
0.0346534
0.0318341
0.02829
0.0251674
0.0229242
0.0185985
0.00503418
0.00503418
0.0221438
0.0506173
0.0766507
0.104039
0.117116
0.00422737
0.010334
0.0206565
0.0318262
0.0404764
0.0520234
0.00422737
0.0167335
0.0207169
0.0227088
0.0240566
0.0250328
0.0272963
0.0292601
0.0308998
0.0321983
0.0331619
0.0338136
0.0341759
0.0341417
0.0336768
0.0327669
0.0314069
0.0295931
0.0272601
0.0251387
0.0235778
0.0214657
0.0171496
0.00425275
0.00425275
0.0111244
0.0314553
0.0610406
0.0898487
0.114714
)
;
    }
    freestream
    {