/*--------------------------------*- C++ -*----------------------------------*\
  =========                 |
  \\      /  F ield         | OpenFOAM: The Open Source CFD Toolbox
   \\    /   O peration     | Website:  https://openfoam.org
    \\  /    A nd           | Version:  11
     \\/     M anipulation  |
\*---------------------------------------------------------------------------*/
FoamFile
{
    format      ascii;
    class       volScalarField;
    location    "1.58";
    object      p;
}
// * * * * * * * * * * * * * * * * * * * * * * * * * * * * * * * * * * * * * //

dimensions      [0 2 -2 0 0 0 0];

internalField   nonuniform List<scalar> 
2880
(
-0.563657
-0.570638
-0.569037
-0.57268
-0.576839
-0.623319
-0.562488
-0.569603
-0.567778
-0.571515
-0.572293
-0.577977
-0.559869
-0.567949
-0.565645
-0.568702
-0.565219
-0.555611
-0.557555
-0.566381
-0.563554
-0.565253
-0.558352
-0.543076
-0.556598
-0.56539
-0.562032
-0.562119
-0.552662
-0.534414
-0.558236
-0.565019
-0.561188
-0.55959
-0.5485
-0.528129
-0.561963
-0.565077
-0.560959
-0.557804
-0.545919
-0.524266
-0.564004
-0.565177
-0.561116
-0.557016
-0.544783
-0.52282
-0.564239
-0.565153
-0.561556
-0.557194
-0.545049
-0.523629
-0.564344
-0.564997
-0.562247
-0.558166
-0.5467
-0.526452
-0.564556
-0.564698
-0.563173
-0.559801
-0.549586
-0.531042
-0.564746
-0.564239
-0.564275
-0.561997
-0.553416
-0.537086
-0.564798
-0.563611
-0.565478
-0.564638
-0.557856
-0.544224
-0.564629
-0.562771
-0.566709
-0.567596
-0.562546
-0.552183
-0.56418
-0.561609
-0.567916
-0.570814
-0.567271
-0.560691
-0.563591
-0.560045
-0.569121
-0.574342
-0.572079
-0.569937
-0.564398
-0.558627
-0.570401
-0.578209
-0.576881
-0.580732
-0.567208
-0.558763
-0.571836
-0.582365
-0.581838
-0.593577
-0.569039
-0.559733
-0.573243
-0.586694
-0.587213
-0.608436
-0.568893
-0.560415
-0.574254
-0.590951
-0.593435
-0.62511
-0.567914
-0.560173
-0.574286
-0.59442
-0.600896
-0.643681
-0.564886
-0.558394
-0.572749
-0.595939
-0.608641
-0.665599
-0.560411
-0.555468
-0.570068
-0.594642
-0.615472
-0.694547
-0.558234
-0.553442
-0.568691
-0.593052
-0.62243
-0.737207
-0.485852
-0.453683
-0.453492
-0.465574
-0.487624
-0.516242
-0.546963
-0.574449
-0.593167
-0.598205
-0.586401
-0.557194
-0.512785
-0.457699
-0.397383
-0.336977
-0.28108
-0.230596
-0.185491
-0.14608
-0.111749
-0.0818106
-0.0552474
-0.0268044
-0.492297
-0.455134
-0.446463
-0.454501
-0.473947
-0.500168
-0.527771
-0.551142
-0.564757
-0.564157
-0.547226
-0.514565
-0.469325
-0.416281
-0.360439
-0.306004
-0.255484
-0.210677
-0.171023
-0.135726
-0.104652
-0.077323
-0.0525755
-0.025112
-0.489161
-0.452563
-0.437785
-0.441531
-0.457591
-0.480259
-0.503527
-0.521468
-0.528613
-0.521546
-0.499378
-0.463919
-0.41902
-0.369272
-0.318829
-0.270633
-0.226458
-0.186953
-0.151986
-0.120995
-0.0935223
-0.069064
-0.0462984
-0.0208157
-0.486026
-0.448048
-0.428564
-0.427928
-0.439868
-0.458001
-0.475946
-0.487164
-0.487016
-0.47335
-0.446605
-0.409605
-0.366309
-0.320643
-0.275688
-0.233467
-0.195006
-0.16065
-0.130253
-0.103328
-0.0793486
-0.0576172
-0.0366368
-0.0139491
-0.483521
-0.443445
-0.419823
-0.414636
-0.421799
-0.434763
-0.446124
-0.449651
-0.442039
-0.422399
-0.392345
-0.355102
-0.314251
-0.272837
-0.233011
-0.196065
-0.162654
-0.132939
-0.106684
-0.0834264
-0.0625974
-0.0432776
-0.0238072
-0.00467072
-0.481888
-0.439697
-0.412224
-0.402223
-0.404304
-0.411061
-0.414652
-0.410287
-0.395677
-0.37115
-0.33904
-0.302483
-0.264391
-0.226962
-0.191632
-0.159246
-0.130194
-0.104505
-0.081863
-0.0617977
-0.0437225
-0.0264611
-0.00815468
0.00686682
-0.481669
-0.437268
-0.405995
-0.391086
-0.387463
-0.386684
-0.382297
-0.370307
-0.349502
-0.321209
-0.288028
-0.252654
-0.217254
-0.183326
-0.151814
-0.123256
-0.0978696
-0.0755796
-0.0560033
-0.0386509
-0.0229419
-0.00738371
0.0101274
0.0206065
-0.48324
-0.436315
-0.401079
-0.381106
-0.370533
-0.361943
-0.349663
-0.330447
-0.304354
-0.273323
-0.239771
-0.205765
-0.172799
-0.141852
-0.113524
-0.0881364
-0.0657764
-0.0462871
-0.0292403
-0.0141537
-0.000459993
0.0137159
0.0307443
0.0363967
-0.486692
-0.436651
-0.397414
-0.371441
-0.353403
-0.337007
-0.316757
-0.290914
-0.260535
-0.227656
-0.194184
-0.161553
-0.130722
-0.102289
-0.0765963
-0.0538047
-0.0339009
-0.0166685
-0.00166533
0.0115552
0.0235518
0.0366166
0.053379
0.0540756
-0.491695
-0.438022
-0.394235
-0.361413
-0.336044
-0.311309
-0.283262
-0.251694
-0.21806
-0.184026
-0.150911
-0.119605
-0.090648
-0.0643394
-0.0408236
-0.0201374
-0.00219538
0.0132539
0.0266356
0.0383317
0.048901
0.061082
0.0777418
0.07354
-0.497895
-0.439457
-0.390322
-0.350798
-0.317366
-0.283986
-0.248889
-0.21269
-0.176697
-0.142045
-0.109495
-0.0794818
-0.0522057
-0.0277251
-0.0060263
0.0129513
0.0293439
0.0434124
0.0555342
0.0660024
0.0753767
0.0868585
0.103586
0.0947925
-0.504637
-0.440188
-0.385123
-0.338781
-0.296239
-0.254514
-0.213396
-0.173633
-0.136064
-0.101256
-0.0694771
-0.040775
-0.015067
0.00778567
0.0279267
0.0454947
0.060661
0.0736775
0.0848459
0.0943512
0.102746
0.113678
0.130629
0.117835
-0.510532
-0.439744
-0.378163
-0.323814
-0.271702
-0.222468
-0.176509
-0.134178
-0.0957334
-0.0612086
-0.0304332
-0.00312329
0.0210422
0.0423661
0.0611009
0.0774517
0.091617
0.10383
0.114303
0.123092
0.130725
0.141239
0.158541
0.142685
-0.514276
-0.437918
-0.368009
-0.304215
-0.243063
-0.187512
-0.137887
-0.0939221
-0.055275
-0.0214803
0.00801796
0.0337879
0.0563498
0.0761419
0.0935088
0.108716
0.121989
0.133548
0.143522
0.151818
0.158924
0.169167
0.186939
0.169454
-0.515079
-0.434716
-0.353034
-0.278945
-0.209912
-0.149352
-0.0971854
-0.0524768
-0.0142871
0.0183118
0.0462174
0.0702377
0.0910549
0.109215
0.125139
0.139147
0.151499
0.162418
0.171992
0.180018
0.1869
0.197043
0.215316
0.198521
-0.513167
-0.429416
-0.332264
-0.247505
-0.171881
-0.107643
-0.0540411
-0.00947103
0.0275925
0.0585094
0.0844734
0.106487
0.125356
0.141703
0.156003
0.168622
0.179857
0.189954
0.199026
0.206907
0.213879
0.223808
0.241904
0.231049
-0.509013
-0.419912
-0.305011
-0.20938
-0.128486
-0.0619799
-0.00810559
0.0354188
0.070674
0.0994096
0.123067
0.142796
0.159481
0.173786
0.186208
0.197124
0.206838
0.215604
0.22359
0.230756
0.237042
0.244381
0.258329
0.267946
-0.501919
-0.402769
-0.269781
-0.163764
-0.0792119
-0.0119861
0.0409149
0.0824489
0.115199
0.141251
0.162242
0.179423
0.193714
0.205781
0.216104
0.225028
0.232803
0.239624
0.245624
0.250687
0.254141
0.256411
0.265942
0.29908
-0.489475
-0.373187
-0.224302
-0.109791
-0.0235524
0.0426688
0.0932374
0.131781
0.161309
0.184179
0.20217
0.216584
0.228344
0.238093
0.246277
0.25321
0.259108
0.264144
0.268376
0.271409
0.272643
0.275475
0.292652
0.313605
-0.468301
-0.326097
-0.166099
-0.0465757
0.0389711
0.102204
0.148942
0.183431
0.209003
0.228205
0.242893
0.25437
0.263527
0.270964
0.27709
0.282187
0.28646
0.290078
0.293052
0.294884
0.295383
0.299846
0.32085
0.331472
-0.43788
-0.257242
-0.0923915
0.0268423
0.108651
0.166606
0.207879
0.237206
0.258091
0.273171
0.284296
0.29271
0.299234
0.304405
0.308582
0.312008
0.314865
0.317303
0.319282
0.320247
0.32024
0.325359
0.347695
0.352921
-0.401917
-0.160153
0.000717648
0.111472
0.185407
0.235495
0.269595
0.292652
0.308196
0.318757
0.326105
0.331374
0.335268
0.338236
0.34057
0.342464
0.344065
0.345484
0.34663
0.346892
0.346405
0.351617
0.374269
0.376601
-0.347875
-0.0186347
0.118032
0.208019
0.268589
0.307961
0.333236
0.349085
0.358723
0.364471
0.367914
0.370008
0.371306
0.372146
0.372739
0.373217
0.373677
0.374183
0.374587
0.374222
0.373259
0.378267
0.400579
0.401076
-0.173498
0.180841
0.258379
0.314638
0.356263
0.382359
0.397535
0.405499
0.408903
0.409706
0.409221
0.408181
0.406957
0.405759
0.404709
0.403869
0.403277
0.402943
0.402659
0.401713
0.400298
0.404953
0.426486
0.425768
1.44769
1.47968
1.50879
1.54195
1.53749
1.48539
1.44772
1.4746
1.49636
1.51587
1.46797
1.36276
1.44773
1.46807
1.47959
1.4862
1.42498
1.29798
1.44749
1.46289
1.46545
1.45968
1.39322
1.27088
1.44686
1.45921
1.45414
1.43845
1.37118
1.26079
1.44568
1.45582
1.44469
1.42169
1.35592
1.25786
1.44388
1.45182
1.43622
1.40815
1.34504
1.2582
1.44146
1.44687
1.42827
1.39692
1.337
1.25982
1.43857
1.44106
1.4207
1.38747
1.33077
1.26127
1.43536
1.43471
1.41363
1.37944
1.32572
1.26227
1.43201
1.42823
1.40725
1.37266
1.32143
1.26252
1.42867
1.422
1.40172
1.36706
1.31764
1.26188
1.42547
1.41636
1.39718
1.36257
1.31423
1.26036
1.4225
1.41151
1.39369
1.35918
1.31118
1.25809
1.41979
1.40761
1.39124
1.35688
1.30859
1.25539
1.41736
1.40471
1.38978
1.35569
1.30661
1.25277
1.41521
1.40278
1.38918
1.35561
1.30544
1.25092
1.41334
1.40167
1.38923
1.35666
1.30527
1.25086
1.4118
1.40112
1.38965
1.35882
1.30635
1.25418
1.41066
1.40065
1.39003
1.3618
1.30912
1.26452
1.40988
1.39948
1.38969
1.36482
1.31412
1.29054
1.40927
1.3968
1.38795
1.36738
1.32175
1.34546
1.40867
1.39282
1.38532
1.37192
1.33208
1.43011
1.40819
1.39007
1.38481
1.38237
1.34351
1.5014
0.325353
0.388207
0.402409
0.424551
0.444704
0.45625
0.460818
0.460718
0.457871
0.453793
0.449483
0.445424
0.441794
0.438674
0.43609
0.434032
0.432474
0.431366
0.430446
0.428973
0.427157
0.431381
0.451793
0.450251
0.635635
0.558328
0.532575
0.529005
0.52938
0.527012
0.521402
0.513578
0.504769
0.496067
0.488157
0.481268
0.475396
0.470495
0.466501
0.463331
0.460892
0.459078
0.457577
0.455638
0.453487
0.457245
0.476281
0.474205
0.815987
0.701188
0.647223
0.62314
0.607159
0.592649
0.577927
0.563093
0.548849
0.535934
0.524745
0.51528
0.50737
0.500855
0.495591
0.491422
0.488196
0.485749
0.483728
0.481391
0.478982
0.482267
0.49974
0.497364
0.923838
0.810579
0.743286
0.704694
0.67633
0.65192
0.629451
0.60853
0.589522
0.572903
0.558825
0.547082
0.537365
0.529426
0.523043
0.518001
0.514087
0.511086
0.508613
0.505952
0.503365
0.506183
0.521959
0.519476
1.00158
0.895038
0.821927
0.773872
0.736392
0.704218
0.675422
0.649408
0.626372
0.606608
0.590063
0.576362
0.565091
0.555928
0.548591
0.542807
0.538311
0.534838
0.531984
0.529074
0.526384
0.528744
0.542734
0.540297
1.05966
0.960331
0.885366
0.831428
0.787439
0.749387
0.715595
0.685467
0.65914
0.636794
0.618211
0.602879
0.590313
0.580134
0.57201
0.56562
0.560649
0.556788
0.553624
0.550538
0.547807
0.549715
0.561871
0.559589
1.10241
1.01019
0.935759
0.878377
0.829921
0.787572
0.749962
0.716619
0.687699
0.663309
0.6431
0.626459
0.612853
0.601864
0.593123
0.586262
0.58092
0.576753
0.573345
0.570145
0.567423
0.568881
0.579195
0.577139
1.13329
1.04772
0.975039
0.915849
0.864476
0.819101
0.778671
0.742906
0.712023
0.686081
0.664629
0.646981
0.632581
0.620985
0.611789
0.604587
0.598973
0.594572
0.59098
0.587717
0.585038
0.586055
0.594558
0.592765
1.15526
1.07548
1.00488
0.944945
0.891796
0.84439
0.801959
0.764448
0.732155
0.705098
0.682748
0.664376
0.649414
0.637399
0.627903
0.620478
0.614679
0.610109
0.606384
0.6031
0.600487
0.601082
0.607848
0.606322
1.17013
1.09523
1.02667
0.966654
0.91255
0.863871
0.820099
0.781409
0.748178
0.72039
0.697451
0.678612
0.6633
0.651044
0.641386
0.633844
0.627937
0.623252
0.619436
0.616162
0.613637
0.613856
0.61901
0.617669
1.17929
1.10831
1.0415
0.981811
0.927334
0.877953
0.833368
0.793972
0.760204
0.732016
0.708761
0.689686
0.67422
0.661881
0.652186
0.644617
0.638663
0.633909
0.630036
0.626793
0.624372
0.624284
0.627951
0.626561
1.18369
1.11567
1.05021
0.991072
0.936644
0.886993
0.842021
0.802311
0.76835
0.740049
0.716724
0.697623
0.682178
0.669897
0.660272
0.652751
0.646801
0.642013
0.638108
0.634902
0.632565
0.632174
0.634527
0.633213
1.18392
1.11796
1.05341
0.994938
0.940866
0.891279
0.846275
0.806588
0.77273
0.744573
0.721399
0.702463
0.687197
0.6751
0.665638
0.658228
0.652328
0.647542
0.643634
0.640475
0.638186
0.637476
0.638757
0.637779
1.18021
1.11557
1.05149
0.993772
0.940286
0.891039
0.846309
0.806941
0.773454
0.745673
0.722857
0.704261
0.68932
0.67752
0.668303
0.661063
0.655259
0.650519
0.646652
0.643569
0.641316
0.640299
0.640778
0.640261
1.1726
1.10864
1.04465
0.987801
0.93509
0.886434
0.84226
0.803488
0.770623
0.743441
0.721177
0.703087
0.688606
0.677205
0.668305
0.66129
0.655627
0.650975
0.647178
0.644184
0.642022
0.64086
0.640722
0.640442
1.16087
1.09712
1.03288
0.977079
0.925351
0.877553
0.834223
0.796325
0.764333
0.73797
0.716449
0.699024
0.685127
0.674219
0.665703
0.658964
0.653488
0.648967
0.645278
0.642392
0.640315
0.639082
0.638636
0.638529
1.14448
1.08072
1.01589
0.961491
0.911029
0.864416
0.822256
0.785534
0.754678
0.729361
0.708774
0.692169
0.678976
0.668647
0.660579
0.654164
0.648922
0.644577
0.641032
0.638265
0.636274
0.635054
0.634556
0.634537
1.12249
1.05887
0.993191
0.940761
0.891998
0.847001
0.806399
0.771195
0.741763
0.71773
0.69827
0.682637
0.670262
0.660594
0.653033
0.646995
0.642032
0.637905
0.634533
0.631895
0.62999
0.62887
0.628563
0.628514
1.09348
1.03065
0.964134
0.914486
0.868078
0.825268
0.786702
0.753406
0.725713
0.703215
0.685079
0.670567
0.659119
0.65019
0.643195
0.63758
0.632942
0.629073
0.625903
0.623401
0.621583
0.620647
0.620776
0.620609
1.05495
0.994503
0.927825
0.882176
0.839064
0.799191
0.76324
0.7323
0.70669
0.685989
0.669372
0.656126
0.645708
0.63759
0.631214
0.62607
0.621798
0.618224
0.615281
0.612921
0.61119
0.610514
0.611306
0.610933
1.00325
0.947763
0.883018
0.843301
0.804803
0.768816
0.736155
0.708066
0.684904
0.666264
0.651357
0.639511
0.630216
0.622973
0.617266
0.612636
0.608768
0.605519
0.602824
0.60061
0.598964
0.598618
0.600276
0.599611
0.933319
0.886003
0.828241
0.797423
0.765331
0.734347
0.705717
0.680989
0.660632
0.644306
0.63128
0.62095
0.612854
0.606541
0.601547
0.597465
0.594032
0.591134
0.588703
0.586639
0.585079
0.585123
0.58783
0.586797
0.831244
0.80296
0.762101
0.744568
0.721075
0.696253
0.672369
0.651477
0.634245
0.62044
0.609429
0.6007
0.59386
0.588517
0.584265
0.580759
0.577784
0.575255
0.573101
0.57119
0.569723
0.570224
0.574156
0.572654
0.651512
0.691142
0.685023
0.685904
0.673064
0.655337
0.636772
0.620083
0.606205
0.595057
0.586136
0.579051
0.573495
0.569139
0.565646
0.56273
0.560225
0.558074
0.556207
0.554456
0.55309
0.554108
0.559427
0.557328
0.142671
0.0936883
0.0512854
-0.0263379
-0.0476959
-0.451963
0.139162
0.0934632
0.0537297
-0.0194828
-0.0267046
-0.140652
0.134242
0.0948099
0.0600037
-0.00264743
-0.0120204
-0.0310383
0.135539
0.0984644
0.0692643
0.020436
0.0135234
0.0178593
0.13965
0.103668
0.0810034
0.0463439
0.0457013
0.0616046
0.143139
0.109539
0.0946166
0.0729597
0.0777187
0.0996399
0.146585
0.117107
0.10971
0.0985556
0.106904
0.130103
0.151262
0.126178
0.125649
0.122285
0.133209
0.154445
0.15701
0.136429
0.141653
0.144218
0.156887
0.174417
0.163478
0.147502
0.157111
0.164415
0.177748
0.190952
0.170362
0.159042
0.171665
0.182704
0.195735
0.204513
0.17742
0.170731
0.18512
0.198913
0.210922
0.215091
0.184444
0.182286
0.197364
0.212901
0.223363
0.222837
0.191257
0.193464
0.208343
0.224578
0.232972
0.227968
0.197694
0.204057
0.218098
0.234135
0.239688
0.230399
0.20361
0.213878
0.22678
0.241851
0.243838
0.229892
0.208959
0.222598
0.234578
0.248056
0.245977
0.226551
0.21366
0.230083
0.241708
0.253265
0.246719
0.22076
0.217564
0.23632
0.248464
0.25836
0.246659
0.213236
0.219807
0.241673
0.255416
0.264567
0.246789
0.205011
0.22105
0.247269
0.263854
0.273685
0.249581
0.197989
0.223028
0.254021
0.275819
0.288596
0.259494
0.196167
0.224748
0.261432
0.291477
0.310076
0.279969
0.195408
0.2255
0.267196
0.304836
0.327771
0.30498
0.193829
0.27352
0.557213
0.602647
0.624383
0.622984
0.612776
0.599817
0.587498
0.577057
0.568594
0.561764
0.556316
0.552033
0.548657
0.545917
0.543587
0.541548
0.53977
0.53818
0.536573
0.535255
0.536709
0.543575
0.541284
0.162058
0.438529
0.525954
0.564705
0.57325
0.57013
0.562587
0.554501
0.547385
0.541502
0.536682
0.532809
0.529751
0.52732
0.525309
0.523546
0.521952
0.520523
0.519186
0.517686
0.516329
0.518072
0.526541
0.524572
0.156645
0.368625
0.463675
0.510607
0.52624
0.528943
0.526116
0.521824
0.51773
0.514202
0.511235
0.508827
0.506916
0.505374
0.504051
0.502825
0.501651
0.500545
0.499434
0.498011
0.496575
0.498552
0.508591
0.507027
0.161355
0.328122
0.415515
0.463683
0.483309
0.490187
0.491116
0.49001
0.488513
0.487043
0.485727
0.48464
0.483772
0.483048
0.482364
0.481641
0.480862
0.480061
0.479161
0.477811
0.476321
0.478605
0.490151
0.488521
0.168511
0.301328
0.377564
0.423404
0.444673
0.454224
0.457959
0.459396
0.460029
0.460295
0.460401
0.460471
0.46053
0.460541
0.460442
0.460186
0.459778
0.459268
0.458573
0.457302
0.455788
0.458409
0.471433
0.469581
0.178585
0.282359
0.347012
0.388745
0.410074
0.421094
0.426782
0.430153
0.432461
0.434138
0.435436
0.436493
0.437357
0.43802
0.438449
0.438623
0.438563
0.43833
0.437836
0.436654
0.435128
0.43807
0.452504
0.450458
0.189255
0.268449
0.322176
0.358721
0.379073
0.390653
0.397575
0.402317
0.405881
0.408673
0.410945
0.412828
0.414381
0.415614
0.416517
0.417086
0.417355
0.417389
0.417098
0.41602
0.414501
0.417735
0.433483
0.431326
0.198747
0.25767
0.301635
0.332487
0.351171
0.362639
0.370211
0.375839
0.380298
0.383946
0.386992
0.389554
0.391689
0.393419
0.394749
0.395684
0.396267
0.396564
0.396483
0.395532
0.394048
0.397544
0.414486
0.412353
0.206224
0.248846
0.283917
0.309325
0.325843
0.336703
0.344466
0.350595
0.355658
0.359937
0.363589
0.366703
0.369332
0.371499
0.373217
0.374498
0.375387
0.375951
0.376095
0.375303
0.373892
0.377617
0.395606
0.393707
0.211912
0.241293
0.267997
0.288426
0.30253
0.312443
0.32006
0.326396
0.33184
0.336575
0.340699
0.34427
0.347326
0.349889
0.351972
0.35359
0.354787
0.355629
0.35602
0.355429
0.354136
0.358053
0.376909
0.375557
0.215912
0.23429
0.253206
0.269081
0.280678
0.289439
0.296673
0.303014
0.308678
0.313745
0.318249
0.322215
0.32566
0.328599
0.331043
0.333005
0.334526
0.335669
0.336338
0.335997
0.334875
0.338926
0.358418
0.358096
0.217997
0.227104
0.2392
0.250672
0.259745
0.267253
0.273961
0.280187
0.285974
0.291299
0.296135
0.300469
0.304296
0.307621
0.310446
0.312781
0.31466
0.316141
0.317133
0.317102
0.316205
0.320289
0.340091
0.341593
0.218011
0.219071
0.225105
0.232424
0.239161
0.245428
0.251569
0.257631
0.263504
0.269065
0.274227
0.27894
0.283176
0.286924
0.29018
0.292946
0.295246
0.297129
0.298511
0.298875
0.298257
0.302165
0.321758
0.326545
0.215871
0.209551
0.21004
0.213813
0.218405
0.223515
0.229127
0.235048
0.241028
0.24685
0.252375
0.257512
0.262214
0.266456
0.270224
0.273514
0.276337
0.278729
0.280624
0.281541
0.281295
0.284536
0.302811
0.314142
0.211191
0.197979
0.193666
0.194246
0.196948
0.201076
0.206276
0.212146
0.218303
0.224456
0.230412
0.236048
0.241299
0.246127
0.250518
0.254459
0.257953
0.261019
0.263627
0.265437
0.265904
0.267383
0.280989
0.307042
0.20327
0.18366
0.17518
0.173092
0.174293
0.177707
0.182687
0.188648
0.195099
0.201683
0.208161
0.214386
0.220278
0.225793
0.230918
0.23565
0.239997
0.243974
0.247603
0.250815
0.253115
0.253979
0.258137
0.302843
0.191271
0.165691
0.153821
0.149776
0.149995
0.153055
0.158071
0.164314
0.171207
0.17834
0.185442
0.192345
0.198958
0.205234
0.211165
0.216763
0.222066
0.227133
0.231978
0.236404
0.240335
0.246587
0.262575
0.270367
0.174239
0.143041
0.128839
0.123764
0.123663
0.126826
0.132196
0.138946
0.146448
0.154258
0.162083
0.169739
0.17712
0.18417
0.19087
0.197221
0.203248
0.208989
0.214382
0.219072
0.223238
0.231497
0.251223
0.243372
0.151148
0.114557
0.0994725
0.0945597
0.0949573
0.0987829
0.104883
0.112397
0.120687
0.129305
0.137947
0.14642
0.154605
0.162432
0.169864
0.176882
0.183491
0.189709
0.195455
0.200367
0.204739
0.213688
0.234283
0.221245
0.121023
0.0789877
0.065005
0.0617256
0.0635975
0.0687492
0.0760157
0.0845736
0.0938382
0.10339
0.112938
0.122288
0.131313
0.139929
0.148082
0.155735
0.162874
0.169513
0.175604
0.180838
0.185562
0.19498
0.215823
0.200983
0.0828923
0.0352635
0.0249721
0.0249522
0.0293707
0.0366066
0.0455283
0.0554303
0.0658564
0.0764652
0.0870019
0.0972851
0.107188
0.116618
0.125507
0.133798
0.141464
0.148522
0.154975
0.160576
0.165722
0.1755
0.196306
0.181506
0.0357124
-0.0168939
-0.0205076
-0.0157823
-0.00776521
0.00234945
0.0134335
0.0249774
0.0367419
0.048517
0.0601147
0.071384
0.0822074
0.0924908
0.102153
0.111125
0.119359
0.126876
0.133721
0.139727
0.145326
0.155353
0.175898
0.162445
-0.0249389
-0.0770279
-0.0706193
-0.0601489
-0.0477171
-0.034
-0.0202515
-0.00676404
0.0065119
0.0195504
0.03227
0.044573
0.0563636
0.0675522
0.0780519
0.0877795
0.0966704
0.104728
0.112021
0.118478
0.124548
0.134693
0.154742
0.143626
-0.11157
-0.142832
-0.123813
-0.106389
-0.0890712
-0.0719589
-0.0553995
-0.0397642
-0.0248224
-0.0104385
0.00345248
0.0168307
0.029637
0.0417954
0.053218
0.0638116
0.0734912
0.0822217
0.0900708
0.0970461
0.103602
0.113741
0.133034
0.124981
-0.340298
-0.331691
-0.337197
-0.348899
-0.368779
-0.408935
-0.342681
-0.334745
-0.342911
-0.35725
-0.378281
-0.420071
-0.34771
-0.338998
-0.349813
-0.365621
-0.384872
-0.412918
-0.351118
-0.342365
-0.35519
-0.371323
-0.388765
-0.409184
-0.349828
-0.344432
-0.358879
-0.375054
-0.391345
-0.40808
-0.346458
-0.346167
-0.361612
-0.377818
-0.393447
-0.408025
-0.345875
-0.34868
-0.364055
-0.380043
-0.395251
-0.408302
-0.347415
-0.351613
-0.36634
-0.381917
-0.396691
-0.408598
-0.348963
-0.354478
-0.368363
-0.38354
-0.397683
-0.408802
-0.35025
-0.357065
-0.370038
-0.384829
-0.398317
-0.408892
-0.351268
-0.359268
-0.371315
-0.385706
-0.398664
-0.408863
-0.352001
-0.361014
-0.372148
-0.386157
-0.398731
-0.408735
-0.352456
-0.362209
-0.372487
-0.386198
-0.398525
-0.408521
-0.352646
-0.362871
-0.372316
-0.385827
-0.398045
-0.408221
-0.352619
-0.363005
-0.371641
-0.385037
-0.397266
-0.407799
-0.352459
-0.362647
-0.370495
-0.383815
-0.396133
-0.407157
-0.352324
-0.361874
-0.368936
-0.382144
-0.394544
-0.406109
-0.352217
-0.360796
-0.367049
-0.379998
-0.392342
-0.404371
-0.349954
-0.359542
-0.364958
-0.377349
-0.389318
-0.40152
-0.345946
-0.358372
-0.362889
-0.374231
-0.385223
-0.396736
-0.343499
-0.358
-0.361331
-0.370858
-0.379721
-0.3882
-0.346056
-0.35884
-0.360801
-0.367467
-0.372131
-0.372316
-0.350353
-0.360302
-0.360814
-0.36345
-0.361371
-0.344684
-0.352366
-0.360768
-0.359047
-0.3568
-0.347751
-0.309062
-0.250982
-0.211071
-0.179418
-0.153292
-0.130287
-0.10988
-0.0913446
-0.0738407
-0.05723
-0.0414709
-0.0263729
-0.0118907
0.00197499
0.0151748
0.0276239
0.0392219
0.0498634
0.0594691
0.0680603
0.0756795
0.0827884
0.0928398
0.111083
0.106545
-0.319125
-0.273656
-0.233179
-0.199832
-0.172107
-0.147647
-0.126667
-0.107941
-0.0904276
-0.0735953
-0.0573087
-0.0417003
-0.0267263
-0.0124097
0.0011762
0.0139383
0.0257543
0.036503
0.0461149
0.0546187
0.0624384
0.0724122
0.0893332
0.088436
-0.359747
-0.318119
-0.279019
-0.24467
-0.21365
-0.186618
-0.162708
-0.141693
-0.123178
-0.105982
-0.0892805
-0.0728382
-0.056723
-0.0411701
-0.0263116
-0.0122022
0.00102236
0.013217
0.02424
0.0340231
0.0428655
0.0529672
0.0684253
0.070973
-0.385367
-0.351216
-0.316266
-0.283064
-0.253352
-0.225954
-0.200446
-0.177844
-0.157156
-0.13816
-0.120914
-0.104475
-0.0880369
-0.0714831
-0.0552793
-0.0395453
-0.0246173
-0.0106371
0.00223551
0.0138224
0.0242144
0.0349141
0.049101
0.0547945
-0.399351
-0.375791
-0.346386
-0.315955
-0.287104
-0.261169
-0.237938
-0.215605
-0.193904
-0.173746
-0.154683
-0.136198
-0.118918
-0.102319
-0.0855412
-0.0685184
-0.0517484
-0.0355714
-0.020346
-0.00634526
0.00632509
0.0184432
0.0321428
0.0407688
-0.40674
-0.392668
-0.369739
-0.343378
-0.316548
-0.291697
-0.269178
-0.248658
-0.229812
-0.211188
-0.191664
-0.172063
-0.15299
-0.134055
-0.115452
-0.09761
-0.0799429
-0.0620085
-0.0441915
-0.0272404
-0.011453
0.00329457
0.0178717
0.0293934
-0.410938
-0.403295
-0.386582
-0.364797
-0.340999
-0.317701
-0.295999
-0.276346
-0.258314
-0.241173
-0.224729
-0.208092
-0.189798
-0.169877
-0.149312
-0.128719
-0.108095
-0.0880281
-0.0685351
-0.0491286
-0.0299848
-0.0115603
0.00555063
0.0205228
-0.413473
-0.409709
-0.397807
-0.380294
-0.359727
-0.33844
-0.317837
-0.298687
-0.281036
-0.264669
-0.249244
-0.233853
-0.217904
-0.201189
-0.18291
-0.162371
-0.139922
-0.116619
-0.0933487
-0.0704478
-0.0482732
-0.0264344
-0.00576662
0.0142038
-0.415025
-0.413559
-0.404986
-0.390865
-0.373169
-0.353846
-0.334345
-0.315559
-0.297907
-0.281451
-0.266016
-0.251153
-0.236361
-0.220999
-0.204319
-0.186006
-0.166057
-0.144097
-0.119922
-0.0941308
-0.067719
-0.0413085
-0.0155043
0.0121371
-0.415951
-0.415918
-0.409625
-0.398011
-0.382614
-0.364967
-0.346349
-0.327708
-0.309654
-0.292457
-0.276146
-0.260579
-0.245459
-0.230283
-0.214491
-0.197609
-0.179153
-0.158639
-0.13591
-0.111075
-0.0843232
-0.055288
-0.0259174
0.00471109
-0.41652
-0.41747
-0.41286
-0.403199
-0.389667
-0.373453
-0.355576
-0.336899
-0.318088
-0.299587
-0.28163
-0.264285
-0.24753
-0.231126
-0.214623
-0.197593
-0.179636
-0.160315
-0.13922
-0.115981
-0.090378
-0.0619421
-0.0318957
0.00131055
-0.416964
-0.418686
-0.415531
-0.407606
-0.395799
-0.381024
-0.364012
-0.345401
-0.3258
-0.305721
-0.285579
-0.265644
-0.246116
-0.227078
-0.208376
-0.189712
-0.170759
-0.15117
-0.130608
-0.108751
-0.0852594
-0.0595414
-0.03162
-0.00130235
-0.417474
-0.419933
-0.418199
-0.412112
-0.402239
-0.389183
-0.373481
-0.35543
-0.335479
-0.314096
-0.291755
-0.268879
-0.245864
-0.223085
-0.200768
-0.178967
-0.157584
-0.136406
-0.115189
-0.0936754
-0.0717033
-0.049103
-0.0258183
-0.00297124
-0.418213
-0.42154
-0.421352
-0.417267
-0.409808
-0.399142
-0.38548
-0.368853
-0.349439
-0.327553
-0.303645
-0.278158
-0.251601
-0.224626
-0.197755
-0.171474
-0.146144
-0.121752
-0.0985138
-0.0763157
-0.0549859
-0.034302
-0.0141248
0.00311266
-0.4193
-0.423655
-0.425321
-0.423585
-0.419041
-0.411574
-0.40101
-0.387081
-0.369663
-0.348787
-0.324592
-0.297189
-0.26713
-0.235376
-0.203143
-0.171458
-0.140967
-0.112327
-0.0856783
-0.0612245
-0.0389823
-0.0180971
0.00365667
0.0217983
-0.420817
-0.426355
-0.430182
-0.431213
-0.430204
-0.426843
-0.420713
-0.411175
-0.397394
-0.378674
-0.354244
-0.324512
-0.290912
-0.254726
-0.217369
-0.180108
-0.144131
-0.110461
-0.0798027
-0.0526862
-0.0292374
-0.00788308
0.0155446
0.0341551
-0.422813
-0.42962
-0.435851
-0.440006
-0.443157
-0.44485
-0.444118
-0.439733
-0.430227
-0.414201
-0.391023
-0.36114
-0.325337
-0.28495
-0.241849
-0.198129
-0.155755
-0.11636
-0.0812092
-0.0512611
-0.0270358
-0.00831083
0.00514123
0.00854626
-0.425302
-0.433322
-0.44204
-0.449467
-0.457035
-0.464218
-0.469748
-0.471772
-0.468211
-0.457087
-0.437188
-0.408198
-0.370383
-0.325501
-0.276092
-0.225136
-0.17548
-0.129556
-0.0891598
-0.0555259
-0.0295429
-0.0121321
-0.00468521
-0.00555281
-0.428258
-0.437199
-0.448277
-0.458916
-0.470964
-0.483959
-0.496385
-0.50597
-0.509914
-0.505272
-0.48972
-0.462228
-0.42279
-0.373589
-0.317754
-0.25939
-0.202448
-0.149918
-0.103903
-0.0657868
-0.0364166
-0.0164339
-0.00617512
-0.00325091
-0.431571
-0.440823
-0.453944
-0.467499
-0.483773
-0.502503
-0.521878
-0.5392
-0.550913
-0.55315
-0.542724
-0.51744
-0.47687
-0.424413
-0.363482
-0.299138
-0.236256
-0.178459
-0.128042
-0.086256
-0.0534872
-0.0294657
-0.0132374
-0.00275849
-0.434758
-0.443702
-0.458428
-0.47412
-0.494057
-0.517773
-0.543231
-0.567243
-0.585533
-0.593637
-0.587144
-0.563823
-0.523654
-0.469268
-0.405155
-0.337159
-0.27084
-0.210184
-0.15732
-0.113141
-0.0774502
-0.0492753
-0.026959
-0.0089326
-0.436636
-0.445475
-0.460933
-0.47781
-0.500353
-0.527761
-0.557593
-0.586204
-0.608617
-0.619791
-0.61523
-0.592727
-0.552431
-0.497093
-0.431648
-0.36242
-0.295273
-0.234061
-0.180341
-0.134942
-0.0973936
-0.0663266
-0.04014
-0.0168066
-0.437108
-0.446684
-0.460857
-0.477723
-0.501536
-0.531002
-0.563113
-0.593624
-0.617231
-0.628617
-0.623608
-0.600215
-0.558927
-0.502928
-0.437752
-0.36966
-0.304271
-0.244795
-0.191908
-0.146833
-0.10898
-0.0767427
-0.0488027
-0.0222908
-0.44656
-0.449508
-0.458336
-0.47355
-0.497177
-0.526961
-0.559274
-0.589273
-0.611469
-0.620651
-0.613071
-0.587227
-0.54434
-0.488365
-0.425013
-0.360109
-0.298787
-0.242667
-0.193038
-0.150281
-0.11342
-0.0815836
-0.0536725
-0.0255402
)
;

boundaryField
{
    rotor
    {
        type            zeroGradient;
    }
    freestream
    {
        type            freestreamPressure;
        freestreamValue uniform 0;
        supersonic      false;
        value           nonuniform List<scalar> 
96
(
-0.00346548
-0.00351231
-0.00315715
-0.00230185
-0.00084174
0.00135455
0.00445482
0.0086259
0.0140403
0.0208876
0.0293888
0.0397676
0.0522515
0.0670985
0.084678
0.105732
0.130957
0.155429
0.173513
0.194841
0.219526
0.246891
0.276027
0.306446
0.337703
0.369376
0.401058
0.432326
0.462745
0.491873
0.519284
0.544574
0.567383
0.587364
0.604086
0.617582
0.627862
0.634824
0.638172
0.63807
0.634515
0.627577
0.617455
0.604338
0.588455
0.570081
0.549519
0.527063
0.50331
0.478463
0.452533
0.425584
0.398253
0.370901
0.343807
0.317223
0.291376
0.266472
0.242703
0.220285
0.199529
0.181089
0.1663
0.153674
0.128326
0.107359
0.0902449
0.0754324
0.0623739
0.0508647
0.0407849
0.0320446
0.0245677
0.0182776
0.0131129
0.00903432
0.00599551
0.00386065
0.00241652
0.00150977
0.00118111
0.000426229
0.000111713
-0.000103679
-0.000207199
0.000157038
0.000440014
1.811e-06
0.000209568
-0.000295206
-0.000234287
-0.000231437
-0.000825071
-0.00171008
-0.00248366
-0.00306956
)
;
    }
    frontAndBack
    {
        type            empty;
    }
}


// ************************************************************************* //
