/*--------------------------------*- C++ -*----------------------------------*\
  =========                 |
  \\      /  F ield         | OpenFOAM: The Open Source CFD Toolbox
   \\    /   O peration     | Website:  https://openfoam.org
    \\  /    A nd           | Version:  11
     \\/     M anipulation  |
\*---------------------------------------------------------------------------*/
FoamFile
{
    format      ascii;
    class       surfaceScalarField;
    location    "1.58";
    object      phi;
}
// * * * * * * * * * * * * * * * * * * * * * * * * * * * * * * * * * * * * * //

dimensions      [0 3 -1 0 0 0 0];

internalField   nonuniform List<scalar> 
5640
(
-3.08438e-08
3.08438e-08
-2.24e-07
1.93157e-07
-4.55908e-07
2.31908e-07
-6.70544e-07
2.14636e-07
-1.08374e-06
4.13195e-07
1.10525e-06
-2.18899e-06
-1.39404e-07
1.70247e-07
-4.38416e-07
4.92169e-07
-7.87789e-07
5.81281e-07
-1.154e-06
5.80844e-07
-1.61962e-06
8.78816e-07
1.71494e-06
-2.22931e-06
-2.01005e-07
3.71253e-07
-5.55073e-07
8.46236e-07
-9.8289e-07
1.0091e-06
-1.43412e-06
1.03208e-06
-1.88782e-06
1.33251e-06
2.01644e-06
-2.18932e-06
-2.45555e-07
6.16808e-07
-6.33083e-07
1.23376e-06
-1.10156e-06
1.47758e-06
-1.5806e-06
1.51111e-06
-1.97877e-06
1.73069e-06
2.14157e-06
-2.10391e-06
-2.82341e-07
8.99149e-07
-6.83353e-07
1.63478e-06
-1.16279e-06
1.95702e-06
-1.63316e-06
1.98148e-06
-1.96698e-06
2.06451e-06
2.14948e-06
-1.97489e-06
-3.1204e-07
1.21119e-06
-7.08584e-07
2.03132e-06
-1.17644e-06
2.42487e-06
-1.61701e-06
2.42206e-06
-1.88938e-06
2.33687e-06
2.07187e-06
-1.81177e-06
-3.31306e-07
1.54249e-06
-7.09159e-07
2.40917e-06
-1.14746e-06
2.86317e-06
-1.54714e-06
2.82174e-06
-1.7655e-06
2.55523e-06
1.92783e-06
-1.62146e-06
-3.30252e-07
1.87275e-06
-6.81406e-07
2.76033e-06
-1.07991e-06
3.26168e-06
-1.43475e-06
3.17658e-06
-1.6046e-06
2.72508e-06
1.72968e-06
-1.40645e-06
-3.11946e-07
2.18469e-06
-6.26563e-07
3.07494e-06
-9.78301e-07
3.61342e-06
-1.2875e-06
3.48578e-06
-1.41262e-06
2.85019e-06
1.48498e-06
-1.16792e-06
-2.7861e-07
2.4633e-06
-5.47033e-07
3.34337e-06
-8.47412e-07
3.9138e-06
-1.11001e-06
3.74837e-06
-1.19309e-06
2.93328e-06
1.19996e-06
-9.08071e-07
-2.31952e-07
2.69525e-06
-4.45677e-07
3.55709e-06
-6.90783e-07
4.1589e-06
-9.05892e-07
3.96348e-06
-9.50988e-07
2.97838e-06
8.80274e-07
-6.31299e-07
-1.73493e-07
2.86875e-06
-3.25382e-07
3.70898e-06
-5.11527e-07
4.34505e-06
-6.78819e-07
4.13077e-06
-6.91347e-07
2.99091e-06
5.34472e-07
-3.45545e-07
-1.04653e-07
2.9734e-06
-1.89136e-07
3.79346e-06
-3.12525e-07
4.46843e-06
-4.32392e-07
4.25064e-06
-4.20268e-07
2.97878e-06
1.78712e-07
-6.45079e-08
-2.58152e-08
2.99922e-06
-4.02589e-08
3.80791e-06
-9.65565e-08
4.52473e-06
-1.69805e-07
4.32389e-06
-1.45913e-07
2.95489e-06
-1.65982e-07
1.9878e-07
6.32001e-08
2.93602e-06
1.18895e-07
3.75221e-06
1.33757e-07
4.50987e-06
1.0718e-07
4.35047e-06
1.2752e-07
2.93455e-06
-4.6256e-07
4.24098e-07
1.67259e-07
2.76876e-06
2.84138e-07
3.63533e-06
3.7541e-07
4.4186e-06
3.98499e-07
4.32738e-06
4.1073e-07
2.92232e-06
-6.70609e-07
6.18779e-07
2.8053e-07
2.48823e-06
4.48252e-07
3.46761e-06
6.24701e-07
4.24215e-06
7.05461e-07
4.24662e-06
7.09911e-07
2.91787e-06
-7.7235e-07
8.11651e-07
3.4363e-07
2.1446e-06
6.0007e-07
3.21117e-06
8.76758e-07
3.96546e-06
1.03016e-06
4.09322e-06
1.04249e-06
2.90554e-06
-7.71465e-07
1.0416e-06
3.80558e-07
1.76404e-06
7.35449e-07
2.85628e-06
1.12576e-06
3.57516e-06
1.37314e-06
3.84583e-06
1.42094e-06
2.85774e-06
-6.85161e-07
1.33463e-06
4.0401e-07
1.36003e-06
8.4988e-07
2.41041e-06
1.36343e-06
3.0616e-06
1.73221e-06
3.47706e-06
1.8536e-06
2.73635e-06
-5.42933e-07
1.71137e-06
4.10088e-07
9.49942e-07
9.37535e-07
1.88296e-06
1.5757e-06
2.42344e-06
2.10179e-06
2.95096e-06
2.35648e-06
2.48165e-06
-3.80324e-07
2.19387e-06
3.96331e-07
5.53611e-07
9.91846e-07
1.28745e-06
1.74762e-06
1.66766e-06
2.4741e-06
2.22449e-06
2.94434e-06
2.01141e-06
-2.43219e-07
2.80724e-06
3.51883e-07
2.01728e-07
9.99907e-07
6.39423e-07
1.84349e-06
8.24082e-07
2.81081e-06
1.25717e-06
3.60805e-06
1.21416e-06
-1.47685e-07
3.51251e-06
2.01728e-07
8.41151e-07
1.66523e-06
2.92241e-06
4.13657e-06
3.98889e-06
-1.33849e-06
6.44577e-06
-7.29627e-06
-6.99804e-07
5.99613e-06
-6.63481e-06
4.1995e-07
3.99199e-06
-5.11174e-06
2.13092e-06
1.21586e-06
-2.92682e-06
4.50461e-06
-2.29671e-06
-7.69851e-08
7.56956e-06
-6.54268e-06
3.47773e-06
1.12971e-05
-1.14878e-05
7.76022e-06
1.55947e-05
-1.70221e-05
1.27245e-05
2.03094e-05
-2.29384e-05
1.82236e-05
2.52542e-05
-2.89672e-05
2.40224e-05
3.02007e-05
-3.47925e-05
2.9846e-05
3.48723e-05
-4.00472e-05
3.53756e-05
3.90206e-05
-4.44018e-05
4.02536e-05
4.25035e-05
-4.76793e-05
4.41963e-05
4.53214e-05
-4.99076e-05
4.70897e-05
4.75867e-05
-5.12518e-05
4.89865e-05
4.95067e-05
-5.19533e-05
5.00334e-05
5.11992e-05
-5.22918e-05
5.05993e-05
5.26389e-05
-5.22814e-05
5.08416e-05
5.39097e-05
-5.20083e-05
5.07375e-05
5.50614e-05
-5.15765e-05
5.04248e-05
5.60969e-05
-5.10108e-05
4.99752e-05
5.6995e-05
-5.0265e-05
4.93669e-05
-4.9118e-05
4.83797e-05
-1.405e-06
5.62146e-06
-2.93525e-07
4.88465e-06
1.28e-06
2.41846e-06
3.48391e-06
-9.88052e-07
6.39144e-06
-5.20424e-06
1.0005e-05
-1.01563e-05
1.4259e-05
-1.57417e-05
1.90104e-05
-2.17735e-05
2.40511e-05
-2.79791e-05
2.91266e-05
-3.40427e-05
3.39288e-05
-3.95947e-05
3.81599e-05
-4.42784e-05
4.16348e-05
-4.78766e-05
4.43445e-05
-5.0389e-05
4.64259e-05
-5.1989e-05
4.80868e-05
-5.29128e-05
4.95071e-05
-5.33736e-05
5.06939e-05
-5.34787e-05
5.17258e-05
-5.33132e-05
5.26705e-05
-5.2953e-05
5.35453e-05
-5.24513e-05
5.43528e-05
-5.18182e-05
5.5081e-05
-5.09933e-05
-4.97689e-05
-1.32504e-06
4.75718e-06
8.10702e-08
3.47854e-06
2.04362e-06
4.55911e-07
4.69788e-06
-3.64231e-06
8.0945e-06
-8.60087e-06
1.22026e-05
-1.42644e-05
1.69028e-05
-2.04419e-05
2.19748e-05
-2.68455e-05
2.71358e-05
-3.31401e-05
3.20495e-05
-3.89564e-05
3.63743e-05
-4.39195e-05
3.98858e-05
-4.77899e-05
4.25633e-05
-5.05541e-05
4.45592e-05
-5.23848e-05
4.60848e-05
-5.35146e-05
4.73132e-05
-5.41412e-05
4.83343e-05
-5.43947e-05
4.92207e-05
-5.43651e-05
5.00247e-05
-5.41172e-05
5.07783e-05
-5.37066e-05
5.14981e-05
-5.3171e-05
5.21845e-05
-5.25046e-05
5.28321e-05
-5.16409e-05
-5.03889e-05
-1.17785e-06
3.83113e-06
4.4176e-07
1.85893e-06
2.74158e-06
-1.84391e-06
5.81514e-06
-6.71587e-06
9.67504e-06
-1.24608e-05
1.42333e-05
-1.88226e-05
1.92669e-05
-2.54756e-05
2.44651e-05
-3.20437e-05
2.94631e-05
-3.81381e-05
3.38771e-05
-4.33704e-05
3.74468e-05
-4.74892e-05
4.01375e-05
-5.04806e-05
4.21036e-05
-5.25202e-05
4.35614e-05
-5.38426e-05
4.46922e-05
-5.46454e-05
4.5614e-05
-5.5063e-05
4.64036e-05
-5.51843e-05
4.71095e-05
-5.5071e-05
4.77683e-05
-5.4776e-05
4.84086e-05
-5.4347e-05
4.90422e-05
-5.38046e-05
4.96686e-05
-5.3131e-05
5.02834e-05
-5.22557e-05
-5.10058e-05
-9.93303e-07
2.84954e-06
8.03823e-07
6.18005e-08
3.41862e-06
-4.45871e-06
6.90279e-06
-1.02e-05
1.12081e-05
-1.67661e-05
1.61264e-05
-2.37409e-05
2.13124e-05
-3.06616e-05
2.63642e-05
-3.70955e-05
3.08591e-05
-4.26329e-05
3.45003e-05
-4.70117e-05
3.72376e-05
-5.02264e-05
3.92211e-05
-5.24641e-05
4.06667e-05
-5.39659e-05
4.17578e-05
-5.49337e-05
4.26207e-05
-5.55083e-05
4.3339e-05
-5.57813e-05
4.39676e-05
-5.58128e-05
4.45472e-05
-5.56505e-05
4.51116e-05
-5.53404e-05
4.56826e-05
-5.4918e-05
4.62659e-05
-5.43879e-05
4.68597e-05
-5.37247e-05
4.74596e-05
-5.28557e-05
-5.16274e-05
-7.78198e-07
1.81597e-06
1.19117e-06
-1.90757e-06
4.12676e-06
-7.3943e-06
8.02775e-06
-1.4101e-05
1.27191e-05
-2.14574e-05
1.78306e-05
-2.88524e-05
2.29104e-05
-3.57414e-05
2.74819e-05
-4.16671e-05
3.12054e-05
-4.63564e-05
3.40115e-05
-4.98178e-05
3.60433e-05
-5.22582e-05
3.75119e-05
-5.39327e-05
3.8599e-05
-5.5053e-05
3.94344e-05
-5.57692e-05
4.0107e-05
-5.61808e-05
4.06777e-05
-5.6352e-05
4.11923e-05
-5.63274e-05
4.16876e-05
-5.61458e-05
4.21915e-05
-5.58443e-05
4.2717e-05
-5.54435e-05
4.32657e-05
-5.49366e-05
4.3834e-05
-5.42931e-05
4.4419e-05
-5.34406e-05
-5.2246e-05
-5.30483e-07
7.24998e-07
1.62905e-06
-4.0671e-06
4.9115e-06
-1.06768e-05
9.21091e-06
-1.84004e-05
1.41536e-05
-2.64e-05
1.92206e-05
-3.39194e-05
2.38663e-05
-4.03871e-05
2.76881e-05
-4.54889e-05
3.05846e-05
-4.92528e-05
3.26869e-05
-5.19201e-05
3.42006e-05
-5.37719e-05
3.53053e-05
-5.50373e-05
3.61326e-05
-5.58803e-05
3.67755e-05
-5.64121e-05
3.73009e-05
-5.67062e-05
3.77587e-05
-5.68099e-05
3.81888e-05
-5.67575e-05
3.86223e-05
-5.65793e-05
3.90793e-05
-5.63013e-05
3.95663e-05
-5.59305e-05
4.00818e-05
-5.54521e-05
4.06214e-05
-5.48326e-05
4.11843e-05
-5.40036e-05
-5.28506e-05
-2.44986e-07
-4.36466e-07
2.14133e-06
-6.45342e-06
5.79176e-06
-1.43272e-05
1.04036e-05
-2.30123e-05
1.53941e-05
-3.13906e-05
2.01071e-05
-3.86324e-05
2.40444e-05
-4.43243e-05
2.7053e-05
-4.84975e-05
2.92454e-05
-5.14453e-05
3.0821e-05
-5.34957e-05
3.19585e-05
-5.49094e-05
3.27916e-05
-5.58705e-05
3.3417e-05
-5.65056e-05
3.39053e-05
-5.69005e-05
3.43106e-05
-5.71115e-05
3.46757e-05
-5.71749e-05
3.50346e-05
-5.71164e-05
3.54123e-05
-5.6957e-05
3.5822e-05
-5.6711e-05
3.62658e-05
-5.63744e-05
3.67407e-05
-5.5927e-05
3.72424e-05
-5.53343e-05
3.77728e-05
-5.4534e-05
-5.34284e-05
8.48961e-08
-1.68929e-06
2.73494e-06
-9.10346e-06
6.73775e-06
-1.833e-05
1.15124e-05
-2.7787e-05
1.62663e-05
-3.61444e-05
2.03433e-05
-4.27095e-05
2.3492e-05
-4.7473e-05
2.57939e-05
-5.07994e-05
2.74446e-05
-5.3096e-05
2.86258e-05
-5.46768e-05
2.94744e-05
-5.5758e-05
3.00906e-05
-5.64867e-05
3.05486e-05
-5.69636e-05
3.09055e-05
-5.72574e-05
3.12066e-05
-5.74125e-05
3.14882e-05
-5.74566e-05
3.1779e-05
-5.74072e-05
3.20977e-05
-5.72757e-05
3.24524e-05
-5.70658e-05
3.28432e-05
-5.67651e-05
3.32664e-05
-5.63502e-05
3.37189e-05
-5.57868e-05
3.42045e-05
-5.50195e-05
-5.39651e-05
4.5185e-07
-3.04921e-06
3.4078e-06
-1.20594e-05
7.68151e-06
-2.26037e-05
1.23867e-05
-3.24922e-05
1.66218e-05
-4.03795e-05
1.99488e-05
-4.60365e-05
2.23869e-05
-4.99111e-05
2.41282e-05
-5.25407e-05
2.53622e-05
-5.433e-05
2.62332e-05
-5.55478e-05
2.68462e-05
-5.6371e-05
2.72791e-05
-5.69196e-05
2.75918e-05
-5.72763e-05
2.78314e-05
-5.7497e-05
2.80359e-05
-5.7617e-05
2.8236e-05
-5.76566e-05
2.84545e-05
-5.76257e-05
2.87056e-05
-5.75268e-05
2.89942e-05
-5.73544e-05
2.93197e-05
-5.70906e-05
2.96792e-05
-5.67097e-05
3.00706e-05
-5.61782e-05
3.04987e-05
-5.54476e-05
-5.4447e-05
8.60292e-07
-4.5408e-06
4.12549e-06
-1.53246e-05
8.52774e-06
-2.7006e-05
1.2895e-05
-3.68594e-05
1.64452e-05
-4.39298e-05
1.90589e-05
-4.86501e-05
2.09131e-05
-5.17654e-05
2.22115e-05
-5.3839e-05
2.31109e-05
-5.52294e-05
2.37245e-05
-5.61615e-05
2.41357e-05
-5.67822e-05
2.44077e-05
-5.71915e-05
2.45895e-05
-5.74582e-05
2.47202e-05
-5.76277e-05
2.4831e-05
-5.77278e-05
2.49465e-05
-5.77722e-05
2.50851e-05
-5.77642e-05
2.52574e-05
-5.76991e-05
2.54673e-05
-5.75644e-05
2.57149e-05
-5.73381e-05
2.59983e-05
-5.69931e-05
2.63166e-05
-5.64966e-05
2.66751e-05
-5.58061e-05
-5.48616e-05
1.30131e-06
-6.18766e-06
4.83405e-06
-1.88574e-05
9.15795e-06
-3.13298e-05
1.29742e-05
-4.06756e-05
1.58242e-05
-4.67798e-05
1.78276e-05
-5.06535e-05
1.92075e-05
-5.31453e-05
2.01429e-05
-5.47743e-05
2.07603e-05
-5.58468e-05
2.1151e-05
-5.65522e-05
2.13833e-05
-5.70144e-05
2.15095e-05
-5.73178e-05
2.15702e-05
-5.75189e-05
2.15966e-05
-5.76542e-05
2.16134e-05
-5.77446e-05
2.16397e-05
-5.77984e-05
2.16895e-05
-5.7814e-05
2.17717e-05
-5.77813e-05
2.18906e-05
-5.76832e-05
2.20476e-05
-5.74952e-05
2.2243e-05
-5.71885e-05
2.24769e-05
-5.67305e-05
2.27547e-05
-5.60839e-05
-5.5198e-05
1.76387e-06
-8.01603e-06
5.47374e-06
-2.25672e-05
9.49386e-06
-3.535e-05
1.26651e-05
-4.38468e-05
1.48805e-05
-4.89952e-05
1.63738e-05
-5.21468e-05
1.73586e-05
-5.41302e-05
1.79844e-05
-5.54001e-05
1.83548e-05
-5.62173e-05
1.85458e-05
-5.67432e-05
1.8615e-05
-5.70836e-05
1.86061e-05
-5.73089e-05
1.85519e-05
-5.74647e-05
1.84766e-05
-5.75789e-05
1.83982e-05
-5.76662e-05
1.83305e-05
-5.77307e-05
1.82839e-05
-5.77674e-05
1.82662e-05
-5.77636e-05
1.82827e-05
-5.76997e-05
1.83374e-05
-5.75499e-05
1.8433e-05
-5.72841e-05
1.85717e-05
-5.68692e-05
1.87586e-05
-5.62708e-05
-5.5447e-05
2.22075e-06
-1.0038e-05
5.98165e-06
-2.63281e-05
9.524e-06
-3.88923e-05
1.20574e-05
-4.63803e-05
1.37217e-05
-5.06595e-05
1.47811e-05
-5.32063e-05
1.54244e-05
-5.47735e-05
1.5776e-05
-5.57517e-05
1.59231e-05
-5.63643e-05
1.59305e-05
-5.67506e-05
1.58474e-05
-5.70006e-05
1.57103e-05
-5.71718e-05
1.5545e-05
-5.72993e-05
1.53691e-05
-5.7403e-05
1.51945e-05
-5.74916e-05
1.50298e-05
-5.7566e-05
1.4882e-05
-5.76196e-05
1.47575e-05
-5.76392e-05
1.46629e-05
-5.76051e-05
1.46047e-05
-5.74918e-05
1.45892e-05
-5.72686e-05
1.46215e-05
-5.69014e-05
1.4708e-05
-5.63573e-05
-5.56018e-05
2.63708e-06
-1.2251e-05
6.30802e-06
-2.99991e-05
9.29135e-06
-4.18756e-05
1.12361e-05
-4.8325e-05
1.24217e-05
-5.18451e-05
1.31033e-05
-5.38878e-05
1.34424e-05
-5.51126e-05
1.35443e-05
-5.58536e-05
1.34842e-05
-5.63042e-05
1.33186e-05
-5.65851e-05
1.309e-05
-5.6772e-05
1.28283e-05
-5.69101e-05
1.25533e-05
-5.70243e-05
1.22767e-05
-5.71264e-05
1.20054e-05
-5.72203e-05
1.17433e-05
-5.73038e-05
1.14936e-05
-5.73699e-05
1.12605e-05
-5.74061e-05
1.10504e-05
-5.7395e-05
1.0872e-05
-5.73133e-05
1.07352e-05
-5.71319e-05
1.065e-05
-5.68162e-05
1.06273e-05
-5.63346e-05
-5.56596e-05
2.99445e-06
-1.46266e-05
6.44224e-06
-3.34469e-05
8.85855e-06
-4.42919e-05
1.02714e-05
-4.97379e-05
1.10348e-05
-5.26085e-05
1.1378e-05
-5.42311e-05
1.14385e-05
-5.5173e-05
1.13072e-05
-5.57223e-05
1.10506e-05
-5.60476e-05
1.07188e-05
-5.62532e-05
1.03477e-05
-5.64009e-05
9.96178e-06
-5.65242e-05
9.57559e-06
-5.66381e-05
9.19666e-06
-5.67475e-05
8.82782e-06
-5.68515e-05
8.46943e-06
-5.69454e-05
8.12131e-06
-5.70218e-05
7.78463e-06
-5.70695e-05
7.46359e-06
-5.70739e-05
7.1667e-06
-5.70164e-05
6.90646e-06
-5.68717e-05
6.69608e-06
-5.66059e-05
6.54937e-06
-5.61879e-05
-5.56242e-05
3.31009e-06
-1.71251e-05
6.41733e-06
-3.65541e-05
8.28399e-06
-4.61586e-05
9.21891e-06
-5.06728e-05
9.60122e-06
-5.29908e-05
9.63231e-06
-5.42622e-05
9.43082e-06
-5.49715e-05
9.07738e-06
-5.53689e-05
8.63126e-06
-5.56015e-05
8.13618e-06
-5.57581e-05
7.62255e-06
-5.58873e-05
7.10951e-06
-5.60111e-05
6.60759e-06
-5.61362e-05
6.12134e-06
-5.62612e-05
5.65152e-06
-5.63816e-05
5.19683e-06
-5.64908e-05
4.7555e-06
-5.65804e-05
4.32671e-06
-5.66407e-05
3.9123e-06
-5.66595e-05
3.51857e-06
-5.66227e-05
3.15831e-06
-5.65114e-05
2.8481e-06
-5.62956e-05
2.58562e-06
-5.59254e-05
-5.54468e-05
3.61335e-06
-1.96968e-05
6.28842e-06
-3.92292e-05
7.62452e-06
-4.74947e-05
8.12079e-06
-5.11691e-05
8.14826e-06
-5.30182e-05
7.88391e-06
-5.39978e-05
7.43196e-06
-5.45196e-05
6.86404e-06
-5.48009e-05
6.2326e-06
-5.49701e-05
5.57512e-06
-5.51006e-05
4.91623e-06
-5.52284e-05
4.2703e-06
-5.53652e-05
3.64448e-06
-5.55103e-05
3.04136e-06
-5.56581e-05
2.46097e-06
-5.58012e-05
1.90217e-06
-5.5932e-05
1.36384e-06
-5.60421e-05
8.45855e-07
-5.61227e-05
3.49866e-07
-5.61635e-05
-1.20291e-07
-5.61526e-05
-5.54955e-07
-5.60767e-05
-9.26027e-07
-5.59246e-05
-1.18695e-06
-5.56645e-05
-5.4989e-05
3.93884e-06
-2.2301e-05
6.10692e-06
-4.13973e-05
6.92421e-06
-4.8312e-05
7.00519e-06
-5.125e-05
6.69352e-06
-5.27066e-05
6.14512e-06
-5.34494e-05
5.45111e-06
-5.38256e-05
4.67442e-06
-5.40243e-05
3.86045e-06
-5.41561e-05
3.0401e-06
-5.42803e-05
2.23209e-06
-5.44204e-05
1.44608e-06
-5.45792e-05
6.86061e-07
-5.47503e-05
-4.72545e-08
-5.49248e-05
-7.54698e-07
-5.50938e-05
-1.43779e-06
-5.52489e-05
-2.09804e-06
-5.53819e-05
-2.7366e-06
-5.54841e-05
-3.3541e-06
-5.5546e-05
-3.95013e-06
-5.55565e-05
-4.52366e-06
-5.55032e-05
-5.0827e-06
-5.53655e-05
-5.67166e-06
-5.50755e-05
-5.45562e-05
4.32466e-06
-2.49143e-05
5.90891e-06
-4.29815e-05
6.21064e-06
-4.86137e-05
5.88856e-06
-5.0928e-05
5.24818e-06
-5.20662e-05
4.42421e-06
-5.26254e-05
3.49485e-06
-5.28962e-05
2.51434e-06
-5.30437e-05
1.52041e-06
-5.31622e-05
5.36834e-07
-5.32967e-05
-4.23597e-07
-5.346e-05
-1.35561e-06
-5.36472e-05
-2.25839e-06
-5.38475e-05
-3.13306e-06
-5.40501e-05
-3.98167e-06
-5.42452e-05
-4.80656e-06
-5.4424e-05
-5.61016e-06
-5.45783e-05
-6.39484e-06
-5.46994e-05
-7.16276e-06
-5.47781e-05
-7.91579e-06
-5.48035e-05
-8.65668e-06
-5.47623e-05
-9.38928e-06
-5.46329e-05
-1.00947e-05
-5.43701e-05
-5.39912e-05
4.7972e-06
-2.75177e-05
5.71978e-06
-4.39041e-05
5.49947e-06
-4.83934e-05
4.77936e-06
-5.02079e-05
3.81715e-06
-5.1104e-05
2.72469e-06
-5.1533e-05
1.56693e-06
-5.17385e-05
3.88037e-07
-5.18648e-05
-7.82242e-07
-5.19919e-05
-1.92775e-06
-5.21512e-05
-3.04172e-06
-5.2346e-05
-4.12303e-06
-5.25659e-05
-5.17321e-06
-5.27974e-05
-6.1949e-06
-5.30284e-05
-7.19101e-06
-5.32491e-05
-8.16438e-06
-5.34506e-05
-9.11764e-06
-5.3625e-05
-1.00531e-05
-5.3764e-05
-1.09723e-05
-5.38589e-05
-1.18759e-05
-5.38999e-05
-1.27629e-05
-5.38753e-05
-1.36274e-05
-5.37685e-05
-1.44459e-05
-5.35516e-05
-5.32884e-05
5.35143e-06
-3.00619e-05
5.56763e-06
-4.41203e-05
4.79588e-06
-4.76217e-05
3.67595e-06
-4.90879e-05
2.3986e-06
-4.98266e-05
1.04621e-06
-5.01806e-05
-3.31848e-07
-5.03604e-05
-1.70072e-06
-5.0496e-05
-3.0419e-06
-5.06507e-05
-4.34653e-06
-5.08466e-05
-5.61296e-06
-5.10796e-05
-6.84348e-06
-5.13353e-05
-8.04164e-06
-5.15992e-05
-9.21103e-06
-5.1859e-05
-1.03549e-05
-5.21052e-05
-1.1476e-05
-5.23295e-05
-1.25766e-05
-5.25244e-05
-1.36582e-05
-5.26825e-05
-1.47211e-05
-5.27959e-05
-1.57643e-05
-5.28567e-05
-1.67839e-05
-5.28557e-05
-1.77714e-05
-5.27811e-05
-1.87063e-05
-5.26166e-05
-5.24551e-05
6.09648e-06
-3.26458e-05
5.46686e-06
-4.34907e-05
4.08491e-06
-4.62397e-05
2.56401e-06
-4.7567e-05
9.83702e-07
-4.82463e-05
-6.15071e-07
-4.85818e-05
-2.19938e-06
-4.87761e-05
-3.74922e-06
-4.89461e-05
-5.25405e-06
-4.91459e-05
-6.71245e-06
-4.93882e-05
-8.12764e-06
-4.96644e-05
-9.50461e-06
-4.99584e-05
-1.08483e-05
-5.02556e-05
-1.21626e-05
-5.05447e-05
-1.34509e-05
-5.08169e-05
-1.47156e-05
-5.10648e-05
-1.59583e-05
-5.12818e-05
-1.71795e-05
-5.14612e-05
-1.83787e-05
-5.15968e-05
-1.95533e-05
-5.16821e-05
-2.06982e-05
-5.17107e-05
-2.18043e-05
-5.16749e-05
-2.28543e-05
-5.15666e-05
-5.1497e-05
7.49509e-06
-3.6152e-05
5.32585e-06
-4.13214e-05
3.30509e-06
-4.4219e-05
1.41484e-06
-4.56768e-05
-4.42022e-07
-4.63895e-05
-2.26472e-06
-4.67591e-05
-4.03879e-06
-4.7002e-05
-5.75535e-06
-4.72296e-05
-7.41368e-06
-4.74876e-05
-9.01841e-06
-4.77834e-05
-1.05766e-05
-4.81062e-05
-1.2095e-05
-4.84399e-05
-1.35793e-05
-4.87712e-05
-1.50337e-05
-4.90903e-05
-1.6461e-05
-4.93896e-05
-1.78632e-05
-4.96626e-05
-1.92412e-05
-4.99037e-05
-2.05949e-05
-5.01074e-05
-2.1923e-05
-5.02687e-05
-2.3222e-05
-5.03831e-05
-2.44865e-05
-5.04463e-05
-2.57075e-05
-5.04539e-05
-2.68703e-05
-5.04038e-05
-5.04184e-05
-1.86155e-07
1.86155e-07
1.36553e-07
-3.22708e-07
9.58036e-07
-8.21483e-07
2.27857e-06
-1.32054e-06
5.50945e-06
-3.23088e-06
-6.64656e-06
1.2156e-05
-4.56451e-08
2.318e-07
4.34586e-07
-8.02939e-07
1.31062e-06
-1.69752e-06
2.74824e-06
-2.75816e-06
4.93043e-06
-5.41306e-06
-1.00306e-05
8.31452e-06
8.01731e-08
1.51627e-07
6.11318e-07
-1.33408e-06
1.4685e-06
-2.5547e-06
2.77951e-06
-4.06917e-06
4.44799e-06
-7.08155e-06
-1.17927e-05
6.2101e-06
1.83155e-07
-3.15284e-08
7.06882e-07
-1.85781e-06
1.49412e-06
-3.34194e-06
2.5974e-06
-5.17245e-06
3.80628e-06
-8.29043e-06
-1.27019e-05
4.71546e-06
2.5517e-07
-2.86699e-07
7.40776e-07
-2.34342e-06
1.4228e-06
-4.02397e-06
2.28712e-06
-6.03677e-06
3.08499e-06
-9.08829e-06
-1.30521e-05
3.43514e-06
2.93332e-07
-5.80031e-07
7.22489e-07
-2.77257e-06
1.27973e-06
-4.5812e-06
1.90047e-06
-6.65752e-06
2.33643e-06
-9.52425e-06
-1.29892e-05
2.2736e-06
2.99533e-07
-8.79564e-07
6.61481e-07
-3.13452e-06
1.0856e-06
-5.00533e-06
1.47328e-06
-7.04519e-06
1.59583e-06
-9.6468e-06
-1.26063e-05
1.21288e-06
2.78508e-07
-1.15807e-06
5.6761e-07
-3.42362e-06
8.58305e-07
-5.29602e-06
1.03183e-06
-7.21872e-06
8.87165e-07
-9.50214e-06
-1.19681e-05
2.48969e-07
2.36576e-07
-1.39465e-06
4.50628e-07
-3.63768e-06
6.13357e-07
-5.45875e-06
5.96205e-07
-7.20157e-06
2.27539e-07
-9.13347e-06
-1.11285e-05
-6.12105e-07
1.80328e-07
-1.57498e-06
3.19651e-07
-3.777e-06
3.63966e-07
-5.50307e-06
1.81814e-07
-7.01941e-06
-3.71687e-07
-8.57997e-06
-1.01255e-05
-1.37466e-06
1.15802e-07
-1.69078e-06
1.82703e-07
-3.8439e-06
1.2094e-07
-5.4413e-06
-1.99682e-07
-6.69879e-06
-9.02271e-07
-7.87738e-06
-8.99178e-06
-2.03597e-06
4.81232e-08
-1.7389e-06
4.64544e-08
-3.84223e-06
-1.07305e-07
-5.28754e-06
-5.39788e-07
-6.26631e-06
-1.3585e-06
-7.05867e-06
-7.75579e-06
-2.59449e-06
-1.85579e-08
-1.72034e-06
-8.38382e-08
-3.77695e-06
-3.14622e-07
-5.05676e-06
-8.32692e-07
-5.74824e-06
-1.7365e-06
-6.15486e-06
-6.44335e-06
-3.04895e-06
-8.09324e-08
-1.63941e-06
-2.04272e-07
-3.65361e-06
-4.97012e-07
-4.76402e-06
-1.07498e-06
-5.17027e-06
-2.03389e-06
-5.19595e-06
-5.07941e-06
-3.39782e-06
-1.36355e-07
-1.50306e-06
-3.12057e-07
-3.47791e-06
-6.52432e-07
-4.42364e-06
-1.26543e-06
-4.55727e-06
-2.24947e-06
-4.21191e-06
-3.68995e-06
-3.63894e-06
-1.82522e-07
-1.32053e-06
-4.0533e-07
-3.2551e-06
-7.80543e-07
-4.04843e-06
-1.40492e-06
-3.9329e-06
-2.38357e-06
-3.23326e-06
-2.30418e-06
-3.76934e-06
-2.17217e-07
-1.10332e-06
-4.83028e-07
-2.98929e-06
-8.82689e-07
-3.64877e-06
-1.4966e-06
-3.31899e-06
-2.43827e-06
-2.29158e-06
-9.5773e-07
-3.78472e-06
-2.38151e-07
-8.65167e-07
-5.44742e-07
-2.6827e-06
-9.61864e-07
-3.23165e-06
-1.54631e-06
-2.73455e-06
-2.41833e-06
-1.41955e-06
3.02719e-07
-3.67878e-06
-2.42887e-07
-6.2228e-07
-5.90437e-07
-2.33515e-06
-1.0226e-06
-2.79948e-06
-1.56334e-06
-2.19381e-06
-2.33301e-06
-6.49886e-07
1.41161e-06
-3.4419e-06
-2.28972e-07
-3.93308e-07
-6.20008e-07
-1.94411e-06
-1.0707e-06
-2.34879e-06
-1.56155e-06
-1.70295e-06
-2.20079e-06
-1.06454e-08
2.26917e-06
-3.05835e-06
-1.95107e-07
-1.98201e-07
-6.328e-07
-1.50642e-06
-1.11245e-06
-1.86914e-06
-1.55928e-06
-1.25613e-06
-2.05316e-06
4.83233e-07
2.71709e-06
-2.50108e-06
-1.43415e-07
-5.4786e-08
-6.2714e-07
-1.02269e-06
-1.15446e-06
-1.34182e-06
-1.57339e-06
-8.37192e-07
-1.91976e-06
8.296e-07
2.54221e-06
-1.74488e-06
-7.34239e-08
1.8638e-08
-5.95534e-07
-5.00584e-07
-1.20326e-06
-7.34096e-07
-1.60738e-06
-4.33075e-07
-1.71036e-06
9.32583e-07
1.63805e-06
-8.06194e-07
1.8638e-08
-4.81946e-07
-1.21604e-06
-1.64912e-06
-7.16534e-07
9.21512e-07
7.53622e-06
-3.15322e-05
4.71484e-06
-3.85e-05
2.36113e-06
-4.18652e-05
1.90896e-07
-4.35065e-05
-1.89546e-06
-4.43031e-05
-3.90973e-06
-4.47448e-05
-5.84926e-06
-4.50625e-05
-7.71555e-06
-4.53633e-05
-9.51511e-06
-4.5688e-05
-1.1257e-05
-4.60415e-05
-1.29507e-05
-4.64125e-05
-1.46041e-05
-4.67866e-05
-1.62227e-05
-4.71526e-05
-1.78106e-05
-4.75024e-05
-1.93702e-05
-4.783e-05
-2.0903e-05
-4.81299e-05
-2.24094e-05
-4.83974e-05
-2.38887e-05
-4.86282e-05
-2.53388e-05
-4.88186e-05
-2.67562e-05
-4.89657e-05
-2.81351e-05
-4.90674e-05
-2.94671e-05
-4.91219e-05
-3.07396e-05
-4.91313e-05
-4.92237e-05
5.96686e-06
-2.91846e-05
3.59369e-06
-3.61269e-05
1.20697e-06
-3.94785e-05
-1.1272e-06
-4.11724e-05
-3.38123e-06
-4.20491e-05
-5.54741e-06
-4.25787e-05
-7.62594e-06
-4.2984e-05
-9.6237e-06
-4.33655e-05
-1.15514e-05
-4.37603e-05
-1.34204e-05
-4.41725e-05
-1.52413e-05
-4.45917e-05
-1.70218e-05
-4.50061e-05
-1.87674e-05
-4.5407e-05
-2.04815e-05
-4.57884e-05
-2.2166e-05
-4.61454e-05
-2.3822e-05
-4.64738e-05
-2.54495e-05
-4.67699e-05
-2.70472e-05
-4.70304e-05
-2.8613e-05
-4.72528e-05
-3.01428e-05
-4.74359e-05
-3.16309e-05
-4.75793e-05
-3.30696e-05
-4.76832e-05
-3.44479e-05
-4.7753e-05
-4.79178e-05
4.6618e-06
-2.76363e-05
2.37599e-06
-3.38411e-05
-6.20857e-08
-3.70404e-05
-2.50785e-06
-3.87266e-05
-4.88163e-06
-3.96753e-05
-7.16532e-06
-4.0295e-05
-9.3589e-06
-4.07904e-05
-1.14712e-05
-4.12533e-05
-1.35142e-05
-4.17172e-05
-1.55002e-05
-4.21865e-05
-1.74393e-05
-4.26526e-05
-1.93386e-05
-4.31067e-05
-2.1203e-05
-4.35426e-05
-2.30353e-05
-4.39562e-05
-2.48369e-05
-4.43438e-05
-2.66084e-05
-4.47023e-05
-2.83494e-05
-4.50289e-05
-3.00586e-05
-4.53212e-05
-3.17333e-05
-4.55781e-05
-3.33695e-05
-4.57997e-05
-3.49614e-05
-4.59874e-05
-3.65018e-05
-4.61428e-05
-3.79813e-05
-4.62735e-05
-4.65054e-05
3.30298e-06
-2.62238e-05
1.06908e-06
-3.16072e-05
-1.40683e-06
-3.45645e-05
-3.91509e-06
-3.62183e-05
-6.37197e-06
-3.72184e-05
-8.74651e-06
-3.79204e-05
-1.10357e-05
-3.85012e-05
-1.32478e-05
-3.90412e-05
-1.53947e-05
-3.95704e-05
-1.74876e-05
-4.00936e-05
-1.95357e-05
-4.06045e-05
-2.15451e-05
-4.10972e-05
-2.35198e-05
-4.1568e-05
-2.54618e-05
-4.20141e-05
-2.73723e-05
-4.24333e-05
-2.92514e-05
-4.28232e-05
-3.10984e-05
-4.31819e-05
-3.29117e-05
-4.35079e-05
-3.46885e-05
-4.38013e-05
-3.64246e-05
-4.40637e-05
-3.81143e-05
-4.42977e-05
-3.97509e-05
-4.45061e-05
-4.13269e-05
-4.46976e-05
-4.49913e-05
1.9745e-06
-2.47632e-05
-2.52979e-07
-2.93797e-05
-2.75178e-06
-3.20657e-05
-5.30807e-06
-3.36621e-05
-7.82664e-06
-3.46999e-05
-1.02734e-05
-3.54736e-05
-1.26433e-05
-3.61313e-05
-1.49432e-05
-3.67413e-05
-1.71833e-05
-3.73302e-05
-1.93735e-05
-3.79033e-05
-2.15215e-05
-3.84566e-05
-2.36321e-05
-3.89866e-05
-2.57082e-05
-3.94918e-05
-2.77515e-05
-3.99709e-05
-2.97625e-05
-4.04223e-05
-3.1741e-05
-4.08447e-05
-3.36862e-05
-4.12367e-05
-3.55961e-05
-4.1598e-05
-3.74677e-05
-4.19296e-05
-3.92967e-05
-4.22347e-05
-4.10777e-05
-4.25167e-05
-4.28047e-05
-4.27791e-05
-4.44719e-05
-4.30304e-05
-4.3381e-05
7.11073e-07
-2.32006e-05
-1.54042e-06
-2.71282e-05
-4.06375e-06
-2.95424e-05
-6.65678e-06
-3.1069e-05
-9.22382e-06
-3.21328e-05
-1.17302e-05
-3.29672e-05
-1.41696e-05
-3.36919e-05
-1.6547e-05
-3.43639e-05
-1.88709e-05
-3.50064e-05
-2.11493e-05
-3.56249e-05
-2.3388e-05
-3.62178e-05
-2.55908e-05
-3.67839e-05
-2.77595e-05
-3.73231e-05
-2.98953e-05
-3.78351e-05
-3.19982e-05
-3.83194e-05
-3.40679e-05
-3.87751e-05
-3.61031e-05
-3.92015e-05
-3.81017e-05
-3.95993e-05
-4.00605e-05
-3.99708e-05
-4.19751e-05
-4.03201e-05
-4.38405e-05
-4.06514e-05
-4.56518e-05
-4.09678e-05
-4.74048e-05
-4.12773e-05
-4.16799e-05
-4.71195e-07
-2.15166e-05
-2.76311e-06
-2.48363e-05
-5.31418e-06
-2.69913e-05
-7.93847e-06
-2.84447e-05
-1.05459e-05
-2.95254e-05
-1.31032e-05
-3.04099e-05
-1.56034e-05
-3.11917e-05
-1.80497e-05
-3.19176e-05
-2.04486e-05
-3.26075e-05
-2.28062e-05
-3.32673e-05
-2.51268e-05
-3.38973e-05
-2.74126e-05
-3.4498e-05
-2.96651e-05
-3.50706e-05
-3.18845e-05
-3.56157e-05
-3.40708e-05
-3.61331e-05
-3.62231e-05
-3.66227e-05
-3.834e-05
-3.70846e-05
-4.04192e-05
-3.75202e-05
-4.24571e-05
-3.79329e-05
-4.44496e-05
-3.83277e-05
-4.63923e-05
-3.87086e-05
-4.82816e-05
-3.90785e-05
-5.01148e-05
-3.94442e-05
-3.98942e-05
-1.55919e-06
-1.97084e-05
-3.90122e-06
-2.24942e-05
-6.48305e-06
-2.44095e-05
-9.13614e-06
-2.57916e-05
-1.1779e-05
-2.68825e-05
-1.43811e-05
-2.78079e-05
-1.6935e-05
-2.86378e-05
-1.94425e-05
-2.941e-05
-2.19082e-05
-3.01418e-05
-2.43364e-05
-3.08391e-05
-2.67298e-05
-3.15039e-05
-2.90898e-05
-3.2138e-05
-3.14169e-05
-3.27435e-05
-3.37111e-05
-3.33214e-05
-3.59719e-05
-3.38723e-05
-3.81982e-05
-3.43964e-05
-4.03883e-05
-3.48945e-05
-4.25396e-05
-3.53689e-05
-4.46484e-05
-3.58241e-05
-4.6711e-05
-3.62651e-05
-4.87239e-05
-3.66957e-05
-5.06847e-05
-3.71177e-05
-5.25918e-05
-3.75371e-05
-3.80306e-05
-2.5425e-06
-1.7778e-05
-4.94142e-06
-2.00953e-05
-7.55661e-06
-2.17943e-05
-1.02375e-05
-2.31108e-05
-1.29126e-05
-2.42074e-05
-1.55545e-05
-2.5166e-05
-1.8156e-05
-2.60363e-05
-2.07177e-05
-2.68484e-05
-2.32422e-05
-2.76173e-05
-2.57325e-05
-2.83489e-05
-2.81899e-05
-2.90465e-05
-3.0615e-05
-2.9713e-05
-3.30077e-05
-3.03508e-05
-3.53677e-05
-3.09615e-05
-3.7694e-05
-3.1546e-05
-3.99855e-05
-3.2105e-05
-4.224e-05
-3.264e-05
-4.44546e-05
-3.31543e-05
-4.66261e-05
-3.36526e-05
-4.8751e-05
-3.41401e-05
-5.0827e-05
-3.46197e-05
-5.28523e-05
-3.50924e-05
-5.48266e-05
-3.55628e-05
-3.60958e-05
-3.4179e-06
-1.57348e-05
-5.87555e-06
-1.76377e-05
-8.52575e-06
-1.91441e-05
-1.12339e-05
-2.04026e-05
-1.39387e-05
-2.15027e-05
-1.66163e-05
-2.24883e-05
-1.92597e-05
-2.33929e-05
-2.18685e-05
-2.42396e-05
-2.44441e-05
-2.50417e-05
-2.69879e-05
-2.5805e-05
-2.95004e-05
-2.6534e-05
-3.19814e-05
-2.72319e-05
-3.44306e-05
-2.79016e-05
-3.68472e-05
-2.85449e-05
-3.92301e-05
-2.91631e-05
-4.15776e-05
-2.97574e-05
-4.38876e-05
-3.03301e-05
-4.6157e-05
-3.08849e-05
-4.83828e-05
-3.14268e-05
-5.05625e-05
-3.19604e-05
-5.26943e-05
-3.2488e-05
-5.47768e-05
-3.30098e-05
-5.681e-05
-3.35296e-05
-3.40961e-05
-4.18265e-06
-1.35881e-05
-6.69883e-06
-1.51215e-05
-9.38482e-06
-1.64581e-05
-1.21197e-05
-1.76677e-05
-1.48519e-05
-1.87704e-05
-1.75612e-05
-1.97791e-05
-2.02408e-05
-2.07133e-05
-2.28897e-05
-2.15907e-05
-2.55083e-05
-2.2423e-05
-2.80971e-05
-2.32163e-05
-3.06556e-05
-2.39754e-05
-3.31835e-05
-2.47041e-05
-3.56799e-05
-2.54052e-05
-3.81438e-05
-2.6081e-05
-4.05739e-05
-2.6733e-05
-4.29683e-05
-2.7363e-05
-4.53246e-05
-2.79738e-05
-4.76401e-05
-2.85694e-05
-4.99122e-05
-2.91547e-05
-5.2139e-05
-2.97336e-05
-5.43194e-05
-3.03076e-05
-5.64523e-05
-3.08769e-05
-5.8537e-05
-3.14449e-05
-3.2041e-05
-4.83539e-06
-1.13472e-05
-7.40886e-06
-1.2548e-05
-1.01306e-05
-1.37364e-05
-1.28915e-05
-1.49069e-05
-1.56487e-05
-1.60132e-05
-1.83853e-05
-1.70425e-05
-2.10952e-05
-1.80034e-05
-2.37769e-05
-1.89089e-05
-2.64305e-05
-1.97694e-05
-2.90554e-05
-2.05914e-05
-3.16509e-05
-2.13799e-05
-3.42162e-05
-2.21388e-05
-3.67504e-05
-2.2871e-05
-3.92523e-05
-2.35791e-05
-4.17202e-05
-2.42651e-05
-4.41521e-05
-2.49311e-05
-4.65455e-05
-2.55803e-05
-4.88982e-05
-2.62168e-05
-5.1208e-05
-2.68448e-05
-5.34741e-05
-2.74675e-05
-5.56958e-05
-2.80859e-05
-5.78725e-05
-2.87002e-05
-6.00032e-05
-2.93141e-05
-2.99411e-05
-5.37575e-06
-9.02039e-06
-8.00502e-06
-9.91875e-06
-1.0762e-05
-1.09794e-05
-1.35479e-05
-1.2121e-05
-1.63273e-05
-1.32337e-05
-1.90864e-05
-1.42834e-05
-2.18202e-05
-1.52696e-05
-2.45272e-05
-1.62019e-05
-2.72072e-05
-1.70895e-05
-2.98592e-05
-1.79393e-05
-3.24825e-05
-1.87567e-05
-3.50759e-05
-1.95453e-05
-3.76385e-05
-2.03085e-05
-4.01687e-05
-2.10488e-05
-4.26649e-05
-2.17689e-05
-4.51249e-05
-2.24711e-05
-4.75464e-05
-2.31589e-05
-4.99273e-05
-2.38358e-05
-5.22666e-05
-2.45056e-05
-5.45637e-05
-2.51703e-05
-5.68189e-05
-2.58307e-05
-5.9032e-05
-2.64872e-05
-6.12025e-05
-2.71436e-05
-2.78059e-05
-5.80399e-06
-6.61422e-06
-8.4881e-06
-7.23463e-06
-1.12796e-05
-8.18786e-06
-1.4089e-05
-9.31155e-06
-1.68872e-05
-1.04356e-05