/*--------------------------------*- C++ -*----------------------------------*\
  =========                 |
  \\      /  F ield         | OpenFOAM: The Open Source CFD Toolbox
   \\    /   O peration     | Website:  https://openfoam.org
    \\  /    A nd           | Version:  11
     \\/     M anipulation  |
\*---------------------------------------------------------------------------*/
FoamFile
{
    format      ascii;
    class       volVectorField;
    location    "1.58";
    object      U;
}
// * * * * * * * * * * * * * * * * * * * * * * * * * * * * * * * * * * * * * //

dimensions      [0 1 -1 0 0 0 0];

internalField   nonuniform List<vector> 
2880
(
(-0.0204877 0.031271 -2.18181e-18)
(-0.0419391 0.0431688 -2.46007e-20)
(-0.0820126 0.0385108 6.34559e-19)
(-0.100621 0.0435801 6.54736e-20)
(-0.107955 0.0663464 3.84685e-19)
(-0.236637 0.0704184 0)
(-0.0403459 0.0253254 3.40164e-21)
(-0.0742351 0.0327363 7.81266e-19)
(-0.122045 0.0219819 -6.0487e-19)
(-0.147315 0.0229356 0)
(-0.175306 0.0372891 -5.19336e-19)
(-0.246418 0.0416387 8.75909e-20)
(-0.052567 0.0228029 3.8122e-21)
(-0.0972328 0.0277986 -7.28929e-19)
(-0.148967 0.013327 5.66293e-19)
(-0.17998 0.0098247 0)
(-0.214854 0.0188066 2.89003e-19)
(-0.261843 0.0393587 -2.37311e-19)
(-0.0642479 0.0213454 2.33881e-21)
(-0.117454 0.0243615 7.32535e-19)
(-0.17109 0.00825676 -1.02628e-19)
(-0.204342 0.00143683 1.64615e-19)
(-0.237421 0.00757348 -8.24267e-19)
(-0.267738 0.0308866 5.9224e-21)
(-0.0777004 0.0203286 7.3026e-19)
(-0.136222 0.0214569 -2.21213e-22)
(-0.189954 0.00520311 -9.96351e-19)
(-0.222657 -0.00386783 0)
(-0.250058 -0.000171926 7.86431e-19)
(-0.265914 0.0204749 2.19612e-19)
(-0.0906607 0.0176803 8.23034e-19)
(-0.153382 0.0183983 3.95557e-20)
(-0.205815 0.0034551 4.03883e-19)
(-0.236252 -0.00693671 5.08785e-20)
(-0.255982 -0.00580229 -2.07596e-21)
(-0.25836 0.0102402 2.14238e-19)
(-0.104372 0.015828 -1.88675e-18)
(-0.16843 0.0153437 6.5783e-19)
(-0.218784 0.00276375 -9.05197e-20)
(-0.245564 -0.00810781 4.93459e-19)
(-0.25747 -0.00958247 -3.72819e-19)
(-0.246638 0.00136145 -5.59379e-19)
(-0.119189 0.0172884 1.00238e-18)
(-0.180502 0.0136434 -6.44263e-19)
(-0.228866 0.00327863 -3.84296e-19)
(-0.251537 -0.00748242 -3.89221e-19)
(-0.255762 -0.0115047 2.04899e-19)
(-0.231727 -0.00534972 6.27836e-19)
(-0.129391 0.0169832 1.01882e-18)
(-0.189808 0.0134347 0)
(-0.236302 0.00523278 9.30837e-19)
(-0.255136 -0.00512594 -4.77351e-20)
(-0.25174 -0.0114487 -3.64873e-19)
(-0.214353 -0.00935776 -2.07807e-19)
(-0.138548 0.0175175 -1.01753e-18)
(-0.196715 0.0146392 0)
(-0.241484 0.00876527 6.63676e-22)
(-0.257055 -0.00120071 0)
(-0.245974 -0.0091365 0)
(-0.195208 -0.0103446 0)
(-0.146378 0.0186071 -1.01752e-18)
(-0.201466 0.017251 5.87413e-19)
(-0.244906 0.0138642 -4.59545e-19)
(-0.257712 0.00439345 0)
(-0.239236 -0.00451988 3.32593e-19)
(-0.175028 -0.00822981 2.89233e-19)
(-0.152333 0.0200533 5.24537e-19)
(-0.204271 0.0212271 -5.68617e-19)
(-0.246952 0.0205128 -2.87778e-20)
(-0.257567 0.0116909 0)
(-0.232185 0.00236653 -3.35087e-19)
(-0.154623 -0.00323792 -2.92459e-19)
(-0.156081 0.0219779 9.94484e-19)
(-0.205339 0.0264675 3.2145e-19)
(-0.247937 0.0286908 -1.44401e-20)
(-0.25707 0.0206609 0)
(-0.225532 0.0114223 0)
(-0.134961 0.00403365 0)
(-0.157486 0.0249563 -2.55009e-19)
(-0.204899 0.032838 -2.96149e-19)
(-0.248122 0.0383488 -2.92068e-20)
(-0.256664 0.0312302 4.96283e-20)
(-0.22009 0.02253 -1.09616e-19)
(-0.117173 0.0126626 0)
(-0.156638 0.0305421 -5.14035e-19)
(-0.203307 0.0401928 -1.44446e-19)
(-0.247691 0.0493787 0)
(-0.256705 0.0433054 1.01404e-19)
(-0.216771 0.0356324 8.88176e-20)
(-0.10255 0.0217621 0)
(-0.153669 0.0416058 2.55382e-19)
(-0.201008 0.0482114 1.88851e-19)
(-0.246792 0.0615776 -2.99283e-20)
(-0.257436 0.0567726 -7.67341e-20)
(-0.216362 0.0508433 0)
(-0.0925455 0.0310374 9.88557e-21)
(-0.144681 0.0573051 0)
(-0.198256 0.0557885 -1.14422e-19)
(-0.245376 0.0745071 -3.23942e-20)
(-0.258976 0.0714944 -2.45038e-20)
(-0.219337 0.0685012 4.67678e-20)
(-0.0881657 0.0410838 -2.52445e-21)
(-0.136327 0.05721 0)
(-0.194334 0.0612077 7.69578e-20)
(-0.243011 0.0875275 6.18318e-20)
(-0.261105 0.087317 -1.0758e-19)
(-0.22592 0.0889815 -1.43035e-19)
(-0.0899449 0.0527103 0)
(-0.126912 0.0512318 3.95798e-19)
(-0.188105 0.064648 0)
(-0.238981 0.100245 0)
(-0.263236 0.104037 3.29862e-19)
(-0.235899 0.112502 7.21483e-20)
(-0.0979107 0.0662844 2.07231e-19)
(-0.113849 0.0455681 -3.96658e-22)
(-0.178476 0.0662481 3.00548e-19)
(-0.232487 0.112387 1.60826e-20)
(-0.264334 0.121186 -2.25065e-19)
(-0.248588 0.139399 0)
(-0.111775 0.0817003 -2.28905e-19)
(-0.0992797 0.0397338 -4.03238e-19)
(-0.165308 0.0658023 -3.3308e-19)
(-0.222934 0.123621 -2.69822e-19)
(-0.262911 0.137265 -2.94526e-19)
(-0.263057 0.171518 -1.56587e-19)
(-0.13104 0.0988827 4.25941e-20)
(-0.0859931 0.0329004 1.37176e-20)
(-0.148959 0.0629167 0)
(-0.210219 0.133321 2.8382e-19)
(-0.256621 0.151403 2.45304e-19)
(-0.279585 0.210551 2.1359e-19)
(-0.15457 0.117889 0)
(-0.0715854 0.0239566 9.91016e-19)
(-0.128567 0.0560918 -7.26857e-19)
(-0.193718 0.139487 0)
(-0.243457 0.159212 5.14355e-19)
(-0.296495 0.258469 -5.13219e-19)
(-0.178703 0.132202 -3.12553e-19)
(-0.0453286 0.00276322 -1.93066e-20)
(-0.0925556 0.0305612 1.44429e-21)
(-0.160231 0.127599 0)
(-0.20254 0.141922 -5.40524e-19)
(-0.297586 0.316406 1.07629e-18)
(-0.157846 0.118606 3.55181e-19)
(-0.275769 0.240313 -7.01542e-19)
(-0.237787 0.2663 -2.10868e-19)
(-0.172929 0.266901 -2.52232e-21)
(-0.086329 0.256099 -2.97009e-19)
(0.0234602 0.234677 -2.30071e-19)
(0.155387 0.201097 0)
(0.30684 0.153917 -1.16645e-19)
(0.473077 0.0930743 1.09338e-19)
(0.646984 0.0204723 -2.18555e-19)
(0.820192 -0.0600345 4.11442e-19)
(0.984378 -0.143373 -1.9425e-19)
(1.12952 -0.22326 1.66753e-19)
(1.24578 -0.292983 -1.43564e-19)
(1.32752 -0.347296 1.36535e-19)
(1.37551 -0.383901 0)
(1.39497 -0.403855 8.18373e-20)
(1.39351 -0.408722 6.32375e-20)
(1.38479 -0.406356 -9.30569e-20)
(1.36581 -0.396585 1.30088e-19)
(1.33942 -0.380264 2.95695e-20)
(1.30973 -0.359993 2.25298e-20)
(1.27716 -0.336678 5.23695e-20)
(1.24051 -0.30981 -4.01773e-20)
(1.19565 -0.273938 0)
(-0.288922 0.190433 3.58515e-19)
(-0.227971 0.235481 7.08873e-20)
(-0.13877 0.240783 -3.18089e-19)
(-0.0255963 0.23142 1.18196e-19)
(0.111407 0.210145 3.41912e-19)
(0.270115 0.176748 0)
(0.446271 0.130848 0)
(0.633285 0.0730761 -2.17823e-19)
(0.822054 0.00587184 2.0493e-19)
(1.00271 -0.0668629 1.92758e-19)
(1.16432 -0.140081 -1.82457e-19)
(1.29541 -0.207751 -1.36098e-20)
(1.38834 -0.264446 -1.45361e-19)
(1.44249 -0.306886 0)
(1.46461 -0.334648 -8.70859e-20)
(1.46311 -0.349942 2.28714e-19)
(1.45016 -0.354995 -2.94107e-20)
(1.42707 -0.352269 -6.12039e-20)
(1.39707 -0.343073 -3.87895e-20)
(1.36319 -0.329011 -7.89755e-20)
(1.327 -0.311061 6.68644e-20)
(1.28875 -0.289738 -4.86981e-20)
(1.24695 -0.263998 3.67905e-20)
(1.19785 -0.228543 0)
(-0.284755 0.148363 -2.6761e-19)
(-0.20811 0.198357 -1.44138e-19)
(-0.0972803 0.207951 6.31566e-20)
(0.0419294 0.20115 -2.26185e-19)
(0.206182 0.181851 -1.12751e-19)
(0.391208 0.151106 1.04812e-19)
(0.590666 0.109205 0)
(0.79499 0.0573852 -2.05435e-19)
(0.992272 -0.001595 1.99668e-19)
(1.17057 -0.0642367 -3.59915e-19)
(1.31706 -0.125561 1.67773e-19)
(1.42225 -0.180609 1.52861e-21)
(1.48473 -0.225551 -1.30023e-19)
(1.51159 -0.258936 -9.61706e-20)
(1.51332 -0.281349 -8.97446e-20)
(1.49965 -0.294315 0)
(1.47547 -0.299312 -5.73759e-20)
(1.44463 -0.297647 -5.65798e-21)
(1.40945 -0.290461 3.03124e-20)
(1.37152 -0.278633 0)
(1.33195 -0.26304 4.37499e-20)
(1.29068 -0.243786 -1.02058e-19)
(1.24617 -0.219604 4.03217e-20)
(1.19495 -0.185603 0)
(-0.270986 0.113334 -8.18139e-20)
(-0.179373 0.159591 3.54246e-19)
(-0.047013 0.171934 -2.41599e-19)
(0.118604 0.168451 3.33918e-19)
(0.310596 0.15327 1.04746e-19)
(0.521755 0.128015 0)
(0.741849 0.093019 0)
(0.956528 0.0499722 1.91183e-19)
(1.15213 0.000923249 7.65151e-21)
(1.31465 -0.0506578 0)
(1.4329 -0.100639 1.40628e-19)
(1.50504 -0.145058 1.21131e-19)
(1.5386 -0.181526 2.01215e-19)
(1.54492 -0.20938 -1.26381e-20)
(1.53377 -0.229007 6.66681e-20)
(1.51137 -0.24114 0)
(1.48171 -0.246674 4.17314e-20)
(1.44712 -0.246384 -1.83405e-19)
(1.40919 -0.241011 -4.27933e-20)
(1.36939 -0.231384 -2.64002e-20)
(1.3284 -0.21809 5.57918e-20)
(1.28583 -0.200932 -2.48042e-20)
(1.2402 -0.178479 3.21962e-20)
(1.18807 -0.146421 0)
(-0.250229 0.0826383 6.90404e-19)
(-0.142145 0.122198 -2.81423e-19)
(0.0135865 0.136225 1.23372e-19)
(0.207264 0.137222 -1.11661e-19)
(0.427992 0.128832 -2.0047e-19)
(0.663753 0.111717 0)
(0.897168 0.0865568 -1.88308e-19)
(1.11154 0.0534789 1.76401e-19)
(1.29134 0.0143285 0)
(1.42385 -0.0277208 -1.41747e-19)
(1.50693 -0.0689083 1.33366e-19)
(1.54871 -0.106028 -1.65077e-20)
(1.56117 -0.137216 8.66659e-20)
(1.55452 -0.161832 -2.42855e-19)
(1.53555 -0.179964 -1.77697e-19)
(1.50851 -0.191989 6.1053e-20)
(1.47591 -0.198302 9.12159e-20)
(1.43944 -0.199397 2.6173e-20)
(1.40059 -0.195912 2.46642e-20)
(1.36052 -0.188504 0)
(1.31941 -0.177452 -2.61461e-20)
(1.27666 -0.162429 5.19164e-20)
(1.23082 -0.141812 -1.28851e-20)
(1.17848 -0.11202 -9.68613e-21)
(-0.223954 0.0559139 -6.41886e-19)
(-0.0962302 0.0883083 2.78121e-19)
(0.0863359 0.104227 -5.86344e-20)
(0.310676 0.111959 2.63369e-19)
(0.560394 0.112917 2.01544e-19)
(0.813921 0.106734 2.74059e-19)
(1.04953 0.0919521 -8.71515e-20)
(1.24904 0.0679195 0)
(1.39779 0.0363223 0)
(1.49344 0.0007293 -1.23158e-19)
(1.54485 -0.0348446 1.11695e-20)
(1.56473 -0.0673805 -8.92189e-20)
(1.56376 -0.095257 1.65313e-19)
(1.54923 -0.117887 1.14141e-19)
(1.52577 -0.135206 -1.98388e-19)
(1.4962 -0.147331 4.22731e-20)
(1.46234 -0.154471 3.37211e-20)
(1.42559 -0.156969 -2.57977e-20)
(1.38721 -0.155296 0)
(1.34787 -0.149938 -4.07101e-20)
(1.30742 -0.140995 3.23226e-20)
(1.26509 -0.128041 2.90746e-21)
(1.21949 -0.109306 6.10644e-22)
(1.1673 -0.0820001 -1.15527e-21)
(-0.192983 0.0335704 3.44004e-19)
(-0.0411123 0.0597005 -1.0795e-21)
(0.173042 0.0793057 -2.34047e-19)
(0.430732 0.0966463 -4.16354e-19)
(0.704552 0.109839 0)
(0.964733 0.115053 -3.51745e-19)
(1.18785 0.108583 1.5499e-19)
(1.35616 0.0902026 -1.4215e-19)
(1.46674 0.0626374 1.22012e-20)
(1.52944 0.0307187 -1.02492e-19)
(1.55789 -0.00131836 2.13868e-21)
(1.56347 -0.0308289 -8.22151e-20)
(1.55403 -0.0565265 0)
(1.5347 -0.0779122 0)
(1.50871 -0.0948323 -3.64147e-20)
(1.4781 -0.107264 3.84988e-20)
(1.44427 -0.115282 5.03268e-20)
(1.40833 -0.119119 4.12351e-20)
(1.37122 -0.119119 -2.64961e-20)
(1.33318 -0.115616 4.9931e-21)
(1.29376 -0.108638 -4.90152e-21)
(1.25213 -0.097661 8.29386e-21)
(1.20702 -0.0808115 8.84429e-21)
(1.15524 -0.0561128 -9.86801e-21)
(-0.157676 0.0159778 -3.48056e-19)
(0.0239365 0.0380118 -2.81075e-19)
(0.275041 0.0649855 1.78721e-19)
(0.565036 0.0949716 2.59051e-19)
(0.853192 0.121362 0)
(1.1055 0.135273 -6.99128e-20)
(1.29864 0.13294 -7.96446e-20)
(1.42787 0.115992 1.22281e-19)
(1.50412 0.0899081 1.19863e-19)
(1.54249 0.0601791 1.01829e-19)
(1.55545 0.0305633 1.31521e-20)
(1.55163 0.00313026 1.24434e-19)
(1.53675 -0.0211222 -9.69758e-20)
(1.51454 -0.0417473 0)
(1.48737 -0.0585382 -3.3556e-20)
(1.45679 -0.071392 -6.19494e-20)
(1.42385 -0.0803067 3.45851e-20)
(1.38939 -0.0854283 -2.87964e-20)
(1.35397 -0.0869865 1.80226e-20)
(1.31746 -0.0852048 -4.90719e-21)
(1.27922 -0.0800829 0)
(1.23841 -0.0710281 0)
(1.19394 -0.0560688 6.65013e-21)
(1.14277 -0.0340387 0)
(-0.118144 0.0034639 3.50649e-19)
(0.0996745 0.0249028 0)
(0.391786 0.0634645 0)
(0.707941 0.109101 0)
(0.996465 0.145872 1.70838e-19)
(1.22243 0.163345 2.34433e-19)
(1.3762 0.160274 -6.90621e-20)
(1.46947 0.142424 -1.21644e-19)
(1.51964 0.116806 -8.89897e-20)
(1.54102 0.0885197 8.31129e-20)
(1.5434 0.0605516 5.6765e-20)
(1.53325 0.0344928 -5.33415e-20)
(1.51486 0.0111553 4.28093e-20)
(1.49106 -0.00904861 0)
(1.46367 -0.0258919 4.74184e-20)
(1.43385 -0.0392386 -1.87932e-20)
(1.40238 -0.0490435 -1.94667e-20)
(1.36975 -0.0553832 3.83183e-21)
(1.33618 -0.0583981 -4.17069e-21)
(1.30128 -0.0582409 0)
(1.26429 -0.0549093 0)
(1.22438 -0.0477552 7.99171e-21)
(1.18068 -0.034704 -6.56841e-21)
(1.13029 -0.0153526 -8.79114e-21)
(-0.074437 -0.00363352 4.24579e-20)
(0.186701 0.0222577 -2.57409e-19)
(0.520054 0.0774163 -6.18213e-20)
(0.85068 0.137461 -2.4027e-19)
(1.12108 0.17914 3.43683e-20)
(1.30874 0.194384 0)
(1.42461 0.187923 1.11819e-19)
(1.48956 0.168519 1.36064e-19)
(1.5209 0.143017 2.88899e-20)
(1.53028 0.115607 5.50985e-20)
(1.52526 0.088647 4.28852e-20)
(1.5108 0.0634201 -4.02881e-20)
(1.49023 0.0406127 0)
(1.46578 0.0205929 0)
(1.43885 0.0035749 -8.75323e-21)
(1.41029 -0.0103044 3.38201e-21)
(1.38058 -0.0209802 2.52176e-21)
(1.34993 -0.0284786 -3.56629e-21)
(1.31826 -0.0328755 -1.48783e-20)
(1.28498 -0.0342817 1.17297e-20)
(1.24927 -0.0327071 0)
(1.21033 -0.027453 -7.91254e-21)
(1.1675 -0.0163197 0)
(1.11805 0.000401895 0)
(-0.026708 -0.00514454 1.84797e-19)
(0.284341 0.031422 4.35642e-19)
(0.653646 0.107177 -1.15894e-19)
(0.982124 0.176686 1.4825e-19)
(1.21868 0.216259 -1.96634e-19)
(1.3665 0.225623 0)
(1.45119 0.215218 -1.11106e-19)
(1.495 0.194198 -1.64699e-19)
(1.51266 0.16845 -3.59155e-20)
(1.5134 0.141381 -5.47371e-20)
(1.50314 0.114908 0)
(1.48581 0.0901047 0)
(1.46406 0.0675532 0)
(1.43965 0.0475637 0)
(1.41364 0.0303083 -4.40989e-21)
(1.38662 0.0158938 -9.73026e-21)
(1.35881 0.00438009 4.25672e-21)
(1.33016 -0.00422769 1.16839e-20)
(1.30035 -0.00996009 1.64344e-20)
(1.26869 -0.0129011 3.55535e-21)
(1.23431 -0.0130781 -3.14678e-20)
(1.19645 -0.00973721 3.06454e-20)
(1.15459 -0.000514107 -2.03028e-20)
(1.10622 0.013675 8.17148e-21)
(0.025053 -0.000999454 -4.20348e-19)
(0.390949 0.0541539 7.39455e-20)
(0.784856 0.149599 2.00303e-19)
(1.0925 0.221372 0)
(1.28859 0.253723 1.09815e-19)
(1.40162 0.256423 2.17358e-20)
(1.46216 0.242191 -4.85659e-20)
(1.49023 0.219407 3.70647e-20)
(1.49781 0.193 -2.12198e-20)
(1.49228 0.165791 5.5577e-21)
(1.47838 0.139393 3.84449e-20)
(1.45929 0.114713 -2.44386e-20)
(1.43712 0.092233 7.72876e-21)
(1.41324 0.0721868 -4.60383e-21)
(1.38845 0.0546786 8.40947e-21)
(1.36309 0.0397588 -7.02226e-21)
(1.33718 0.027458 1.29808e-20)
(1.31047 0.0177915 -5.88442e-21)
(1.28249 0.0107566 -2.77471e-21)
(1.25246 0.00629204 0)
(1.21949 0.00435386 4.40095e-20)
(1.18283 0.00576066 -4.50072e-20)
(1.14205 0.0130944 -9.01527e-21)
(1.09494 0.0249155 -8.13542e-21)
(0.0808505 0.00874799 1.46751e-19)
(0.502717 0.0918224 3.95708e-20)
(0.904254 0.200486 -2.91098e-20)
(1.17749 0.267722 -6.13893e-20)
(1.33476 0.290566 9.3547e-20)
(1.41963 0.28675 4.05542e-20)
(1.46174 0.268798 -2.05651e-20)
(1.47799 0.243991 2.19536e-20)
(1.47812 0.216511 -3.43882e-20)
(1.46811 0.188762 6.18504e-21)
(1.45184 0.162123 -7.75475e-21)
(1.43188 0.137355 -3.52125e-21)
(1.40989 0.114832 9.85407e-21)
(1.38691 0.0946954 -8.11865e-21)
(1.36349 0.0769593 -1.46908e-20)
(1.33979 0.0615969 1.74993e-20)
(1.3157 0.0485861 -1.75065e-20)
(1.29083 0.0379276 3.13631e-20)
(1.26461 0.0296295 -8.32057e-22)
(1.23624 0.0236488 3.33036e-20)
(1.20479 0.0199361 -1.22208e-20)
(1.16948 0.0193804 7.1044e-20)
(1.12994 0.0248542 -4.63256e-20)
(1.08428 0.0345598 0)
(0.140469 0.023698 -7.56925e-20)
(0.614167 0.143176 -1.28669e-19)
(1.00477 0.255765 -8.22384e-20)
(1.23813 0.313828 1.03333e-19)
(1.36189 0.32687 -7.94129e-20)
(1.42458 0.316707 -6.42483e-20)
(1.45263 0.294888 0)
(1.46002 0.267719 0)
(1.45473 0.238792 0)
(1.44169 0.210182 6.67846e-21)
(1.4241 0.183069 2.09068e-21)
(1.404 0.158069 5.97611e-21)
(1.38268 0.13544 -3.97549e-21)
(1.36085 0.115213 8.42458e-21)
(1.33887 0.0973031 9.24414e-21)
(1.31676 0.0815918 -3.63642e-20)
(1.29433 0.067984 1.30771e-20)
(1.27117 0.0564388 -1.18062e-20)
(1.24663 0.0469516 -1.95151e-20)
(1.21994 0.0394809 1.54215e-20)
(1.19014 0.0339905 -2.1392e-20)
(1.15637 0.0314363 -1.25916e-20)
(1.11825 0.0350617 0)
(1.07426 0.0430358 -7.06456e-21)
(0.203758 0.0437035 7.68223e-20)
(0.719647 0.204466 1.94299e-20)
(1.08333 0.312765 0)
(1.27776 0.358965 -3.5324e-20)
(1.37378 0.362488 0)
(1.41917 0.34603 -2.41176e-21)
(1.43654 0.320134 2.46146e-21)
(1.4374 0.290285 6.44635e-21)
(1.42836 0.259606 0)
(1.41353 0.229895 3.27222e-21)
(1.39551 0.202144 2.92696e-21)
(1.37591 0.17682 -3.73151e-21)
(1.35564 0.154048 -4.95875e-21)
(1.33517 0.133745 0)
(1.31466 0.115727 0)
(1.29405 0.0997804 1.62104e-20)
(1.27311 0.0857275 -1.52725e-20)
(1.25144 0.0734588 1.65972e-20)
(1.22846 0.0629267 -2.48585e-20)
(1.20341 0.0540614 1.57466e-20)
(1.17535 0.0468313 -2.54354e-20)
(1.14335 0.0422544 3.15216e-20)
(1.10686 0.0439565 -9.04731e-21)
(1.06493 0.050832 7.13641e-21)
(0.270472 0.0700142 -6.71537e-21)
(0.813955 0.271962 -6.43362e-20)
(1.14081 0.370024 -5.9875e-21)
(1.29942 0.403051 3.50421e-20)
(1.37307 0.397203 -2.24943e-21)
(1.4052 0.374399 1.51131e-20)
(1.41463 0.344167 -2.04604e-21)
(1.4109 0.311353 -2.74328e-21)
(1.39953 0.278685 0)
(1.38397 0.247707 -6.0218e-21)
(1.36632 0.219213 -6.86675e-21)
(1.34776 0.193502 3.39486e-21)
(1.3289 0.170557 5.64146e-21)
(1.30995 0.150184 -5.41483e-21)
(1.29095 0.132107 0)
(1.27176 0.116036 0)
(1.25216 0.101714 -1.26567e-21)
(1.23178 0.0889504 -9.64797e-21)
(1.21012 0.0776272 1.04229e-20)
(1.18655 0.0676299 0)
(1.1602 0.058883 -9.472e-21)
(1.13006 0.0523193 7.91662e-21)
(1.09542 0.0516848 9.24747e-21)
(1.0563 0.0586574 0)
(0.339129 0.106769 1.71094e-21)
(0.893625 0.343506 -9.01948e-21)
(1.17859 0.427038 5.95519e-21)
(1.30558 0.445969 0)
(1.3617 0.430755 -3.93625e-21)
(1.38389 0.401393 3.15657e-21)
(1.38768 0.366548 -8.20887e-22)
(1.38102 0.330541 2.58582e-21)
(1.36859 0.295731 0)
(1.35326 0.263394 0)
(1.33666 0.2341 9.78847e-22)
(1.31963 0.207956 -5.6896e-21)
(1.30248 0.184798 -7.02334e-21)
(1.28524 0.164328 1.22528e-21)
(1.26783 0.146199 0)
(1.25009 0.130069 0)
(1.23177 0.115631 1.26153e-21)
(1.21257 0.102639 0)
(1.19208 0.0909155 4.3056e-21)
(1.16981 0.0803216 0)
(1.14507 0.070716 8.03455e-21)
(1.11697 0.0624898 -1.31908e-21)
(1.08462 0.0582102 5.46859e-21)
(1.04802 0.0677643 -3.12345e-21)
(0.406572 0.159263 0)
(0.955739 0.418244 0)
(1.19769 0.483926 8.07631e-21)
(1.29819 0.487528 -7.10257e-21)
(1.34096 0.462645 6.10848e-21)
(1.35605 0.426425 -1.99074e-21)
(1.35622 0.386751 8.15287e-22)
(1.34815 0.347428 -7.26873e-21)
(1.33581 0.310428 4.23681e-21)
(1.32156 0.276721 -6.07718e-21)
(1.30663 0.246615 5.67765e-21)
(1.29153 0.220008 -7.42245e-21)
(1.27635 0.196581 1.80407e-20)
(1.26101 0.175938 0)
(1.24536 0.157679 0)
(1.22919 0.141436 0)
(1.21229 0.12689 0)
(1.1944 0.113785 0)
(1.17522 0.10194 -2.91485e-20)
(1.15438 0.0912185 2.27283e-20)
(1.13153 0.0813719 -5.4603e-21)
(1.10616 0.0721082 0)
(1.07685 0.0642809 -5.66343e-21)
(1.0368 0.0786764 6.04771e-21)
(0.467984 0.230549 0)
(0.997857 0.495337 1.18414e-19)
(1.199 0.54021 1.23447e-20)
(1.27848 0.527206 -3.53782e-20)
(1.31164 0.492101 3.92821e-21)
(1.32224 0.448773 7.22173e-21)
(1.32069 0.404199 -6.67332e-21)
(1.31263 0.361576 2.88912e-20)
(1.30144 0.322455 0)
(1.28902 0.287452 3.28105e-20)
(1.27626 0.256581 -3.10991e-20)
(1.26342 0.229507 2.90842e-20)
(1.25044 0.205754 0)
(1.23715 0.18483 2.96226e-20)
(1.22338 0.166282 -2.79173e-20)
(1.20894 0.149711 0)
(1.19361 0.134782 0)
(1.17719 0.121221 2.52785e-20)
(1.1594 0.10881 -5.06262e-20)
(1.13995 0.0972658 0)
(1.11853 0.0860244 4.90041e-20)
(1.09457 0.0749876 -4.80505e-20)
(1.06545 0.0682282 5.24651e-20)
(1.0247 0.0794783 -5.15136e-20)
(0.517525 0.322699 2.11026e-19)
(1.01833 0.573106 -1.17893e-19)
(1.18312 0.594524 4.52888e-20)
(1.24715 0.563938 1.56198e-20)
(1.27434 0.51809 0)
(1.283 0.467634 2.84917e-20)
(1.28155 0.418267 -3.49783e-20)
(1.27483 0.372526 -2.8695e-20)
(1.26573 0.33149 0)
(1.25579 0.295371 4.42089e-20)
(1.24562 0.263855 -3.47019e-20)
(1.23529 0.23637 0)
(1.22465 0.212286 0)
(1.21351 0.191021 3.49218e-20)
(1.20169 0.17207 6.40354e-20)
(1.18901 0.155003 -6.06532e-20)
(1.1753 0.13946 0)
(1.16035 0.125145 5.49493e-20)
(1.14392 0.111794 2.95397e-20)
(1.12575 0.0990208 -5.40504e-20)
(1.10555 0.0861777 0)
(1.08257 0.0736535 -8.19258e-20)
(1.05398 0.067113 5.35677e-20)
(1.01717 0.0753411 2.88402e-20)
(0.553195 0.437849 -1.75598e-19)
(1.01628 0.649376 -4.40596e-20)
(1.15049 0.644672 -1.9484e-20)
(1.2048 0.59622 -6.76212e-21)
(1.22975 0.539408 0)
(1.23892 0.482058 -2.82639e-20)
(1.2393 0.428269 7.80124e-20)
(1.23515 0.379811 -4.02e-20)
(1.22899 0.337224 0)
(1.22208 0.300283 -3.92729e-20)
(1.21482 0.268329 0)
(1.20717 0.240566 4.26393e-20)
(1.19897 0.216229 0)
(1.19002 0.19466 -1.08522e-19)
(1.18017 0.175316 6.97359e-20)
(1.16927 0.157745 0)
(1.15717 0.141574 0)
(1.14369 0.1265 9.25966e-20)
(1.12862 0.11225 -8.9425e-20)
(1.11174 0.0984159 0)
(1.09284 0.0843927 -1.15598e-19)
(1.07112 0.0708981 1.40721e-19)
(1.04374 0.0641326 1.20461e-19)
(1.01035 0.069945 -1.45678e-19)
(0.579552 0.581308 0)
(0.990031 0.721054 0)
(1.10116 0.687782 7.73936e-21)
(1.15213 0.621988 -6.85584e-21)
(1.17865 0.5546 5.14068e-20)
(1.19075 0.491013 0)
(1.19458 0.433509 0)
(1.19412 0.382984 -1.11499e-19)
(1.19163 0.339381 1.05789e-19)
(1.18816 0.302024 0)
(1.18404 0.269928 0)
(1.17919 0.242096 -8.51118e-20)
(1.17347 0.217658 -4.5787e-20)
(1.16674 0.195909 1.6183e-19)
(1.15887 0.176281 -1.17122e-19)
(1.14976 0.158317 7.37291e-20)
(1.13929 0.141645 3.41926e-20)
(1.12731 0.125968 -1.3553e-19)
(1.11365 0.111019 -1.31436e-19)
(1.09817 0.0964031 1.60535e-19)
(1.08072 0.0815669 0)
(1.06057 0.0673974 1.27267e-19)
(1.03481 0.0601563 -1.24285e-19)
(1.00456 0.0639856 -3.22201e-20)
(0.593904 0.76176 -5.50648e-20)
(0.932698 0.782848 5.29246e-20)
(1.03407 0.719729 2.23966e-20)
(1.08996 0.638409 -1.99231e-20)
(1.1222 0.561983 -5.0878e-20)
(1.13953 0.493459 -1.42793e-19)
(1.14828 0.433353 0)
(1.15242 0.381674 5.717e-20)
(1.15412 0.337751 -4.7861e-20)
(1.15438 0.30048 1.11472e-19)
(1.15353 0.268604 -1.11734e-19)
(1.15154 0.240972 -1.46859e-19)
(1.14832 0.216648 2.36413e-19)
(1.14379 0.194902 -9.25254e-20)
(1.13791 0.175163 4.01423e-20)
(1.1306 0.156979 -8.31485e-20)
(1.12179 0.13999 3.66856e-20)
(1.11137 0.123909 -2.23289e-19)
(1.09922 0.108489 1.41891e-19)
(1.08526 0.0933517 -1.04459e-19)
(1.06945 0.0779973 0)
(1.05107 0.0633957 0)
(1.02713 0.055648 0)
(0.999724 0.0577737 -8.16283e-20)
(0.533402 0.969085 5.64612e-20)
(0.833445 0.824053 1.29694e-19)
(0.951 0.73387 1.78643e-19)
(1.02095 0.6422 8.10961e-20)
(1.0624 0.559919 -7.43094e-20)
(1.08677 0.488504 1.41608e-19)
(1.10149 0.42734 0)
(1.11082 0.375647 0)
(1.11702 0.332216 -1.26162e-19)
(1.12115 0.295605 -1.25236e-19)
(1.1236 0.264362 2.27685e-19)
(1.12444 0.237238 -1.08831e-19)
(1.12369 0.213279 4.62637e-21)
(1.12136 0.191756 9.20353e-20)
(1.11745 0.172115 -1.81282e-19)
(1.11195 0.15392 4.27766e-19)
(1.10482 0.136824 -1.89512e-22)
(1.09601 0.12056 -8.19937e-20)
(1.08543 0.104896 0)
(1.07309 0.0894839 -7.62443e-20)
(1.05903 0.0738717 6.97059e-20)
(1.04255 0.0590669 0)
(1.02053 0.0508807 2.90746e-19)
(0.995842 0.0515404 -1.45776e-19)
(-0.0137655 -0.0638968 5.66732e-18)
(-0.0313685 -0.0397174 2.06255e-18)
(-0.0739712 0.0266653 -1.61989e-18)
(-0.144147 0.13685 0)
(-0.139382 0.239708 -2.22849e-18)
(-0.341168 0.779002 0)
(-0.0190931 -0.0587684 3.64176e-23)
(-0.0408983 0.00415339 -1.86958e-18)
(-0.0770364 0.0798852 1.43828e-18)
(-0.129457 0.184613 0)
(-0.130964 0.319286 1.20957e-18)
(-0.144455 0.622229 -2.01959e-19)
(-0.0282616 -0.0415949 -2.06782e-22)
(-0.043629 0.036403 1.64748e-18)
(-0.0711298 0.114934 -1.23974e-18)
(-0.10386 0.216989 0)
(-0.0871551 0.357074 -6.17917e-19)
(-0.0340427 0.568942 4.77687e-19)
(-0.0367461 -0.0224631 -7.72583e-22)
(-0.0427169 0.0611568 -1.58925e-18)
(-0.0609417 0.139813 2.17101e-19)
(-0.0772373 0.236379 -3.31681e-19)
(-0.0476263 0.365469 1.65049e-18)
(0.0312581 0.528366 -8.56805e-21)
(-0.0421739 -0.00543706 -2.38506e-18)
(-0.0396161 0.0798558 2.44057e-22)
(-0.0490827 0.156449 1.96234e-18)
(-0.0512993 0.245488 0)
(-0.0115895 0.358581 -1.50144e-18)
(0.0757826 0.485822 -4.04844e-19)
(-0.0436535 0.00829221 -2.51926e-18)
(-0.0347573 0.092821 -8.18005e-20)
(-0.0363214 0.166047 -7.71935e-19)
(-0.0269593 0.246094 -9.62991e-20)
(0.0201417 0.341741 6.06426e-21)
(0.10921 0.440249 -3.99635e-19)
(-0.0412263 0.0184126 5.00191e-18)
(-0.0282361 0.100817 -1.33493e-18)
(-0.0229727 0.169768 1.6757e-19)
(-0.00444529 0.239916 -9.02825e-19)
(0.0477832 0.31827 6.81447e-19)
(0.135706 0.392953 1.01442e-18)
(-0.0354936 0.025228 -2.44822e-18)
(-0.0202104 0.104818 1.29441e-18)
(-0.00928094 0.168775 6.99907e-19)
(0.0162458 0.228554 7.03798e-19)
(0.0718246 0.290428 -3.65826e-19)
(0.157406 0.345018 -1.12567e-18)
(-0.0273901 0.0293617 -2.46876e-18)
(-0.010999 0.105783 0)
(0.00447646 0.164177 -1.67763e-18)
(0.0351512 0.213407 8.32333e-20)
(0.092719 0.259833 6.39045e-19)
(0.175592 0.297215 3.66472e-19)
(-0.0179397 0.0314055 2.46337e-18)
(-0.00103461 0.104557 0)
(0.0179934 0.156961 3.91231e-21)
(0.0522957 0.195649 0)
(0.110854 0.227651 0)
(0.191065 0.250039 0)
(-0.00804961 0.0317994 2.44927e-18)
(0.00921215 0.101812 -1.1369e-18)
(0.0309745 0.147959 8.14004e-19)
(0.0676879 0.176241 0)
(0.126527 0.194734 -5.59353e-19)
(0.20432 0.203733 -4.90721e-19)
(0.00157997 0.0308266 -1.26528e-18)
(0.0192997 0.0980414 1.09555e-18)
(0.0431739 0.137832 5.09214e-20)
(0.0813391 0.155954 0)
(0.139972 0.161705 5.60336e-19)
(0.215673 0.158435 4.92066e-19)
(0.0104582 0.0286506 -2.38524e-18)
(0.0288591 0.0935719 -6.13504e-19)
(0.0544159 0.127094 2.55391e-20)
(0.0932849 0.135409 0)
(0.151375 0.129047 0)
(0.225305 0.114224 0)
(0.0182665 0.0253791 6.12085e-19)
(0.0376071 0.0885901 5.65161e-19)
(0.0646044 0.116133 5.06885e-20)
(0.103606 0.115105 -8.34487e-20)
(0.160897 0.0971463 1.778e-19)
(0.23328 0.0711489 0)
(0.0247987 0.0211023 1.23053e-18)
(0.0453256 0.0831715 2.76147e-19)
(0.0737275 0.105231 0)
(0.112437 0.0954722 -1.70303e-19)
(0.168686 0.0663704 -1.44084e-19)
(0.239544 0.0292656 0)
(0.029857 0.0158829 -6.12026e-19)
(0.0518513 0.0773021 -3.64106e-19)
(0.0818467 0.0945911 5.38277e-20)
(0.119956 0.0769118 1.31274e-19)
(0.174919 0.0371324 0)
(0.243943 -0.0112797 -1.55146e-20)
(0.0331671 0.00979195 0)
(0.0570735 0.0708668 2.24637e-19)
(0.0891039 0.0843399 5.93525e-20)
(0.126407 0.0598049 4.24205e-20)
(0.179831 0.00992596 -7.55158e-20)
(0.246163 -0.0501914 3.94056e-21)
(0.034333 0.00289292 0)
(0.0609322 0.0636391 -1.55728e-19)
(0.0957301 0.0745241 -1.17288e-19)
(0.132115 0.044528 1.89513e-19)
(0.183787 -0.0145988 2.34893e-19)
(0.245666 -0.0868977 0)
(0.0328595 -0.00481654 -1.24018e-18)
(0.0634058 0.0552519 0)
(0.102036 0.0650975 0)
(0.137535 0.0314503 -6.00355e-19)
(0.187408 -0.0355433 -1.23692e-19)
(0.241545 -0.120262 -3.16402e-19)
(0.0283527 -0.0135125 8.4987e-22)
(0.0644662 0.0451945 -6.53835e-19)
(0.108392 0.0558971 -3.34952e-20)
(0.143314 0.020932 4.26978e-19)
(0.191843 -0.051704 0)
(0.232268 -0.1484 3.62473e-19)
(0.0211023 -0.023327 1.24575e-18)
(0.0639827 0.0328885 7.54197e-19)
(0.115162 0.0466805 5.7924e-19)
(0.150278 0.0134121 5.76257e-19)
(0.199218 -0.061454 2.80039e-19)
(0.214479 -0.168846 -7.24937e-20)
(0.0125353 -0.0324087 -4.02292e-20)
(0.0613927 0.0178561 0)
(0.1227 0.0372834 -6.3715e-19)
(0.159171 0.00952279 -5.05624e-19)
(0.21281 -0.0626873 -4.08157e-19)
(0.180631 -0.180796 0)
(0.00343822 -0.0403354 -2.63117e-18)
(0.0550116 -0.000815399 1.76997e-18)
(0.130926 0.0269633 0)
(0.17069 0.00770896 -1.11315e-18)
(0.234543 -0.0535517 1.0181e-18)
(0.111558 -0.191614 5.91613e-19)
(-0.0029852 -0.0465121 5.57165e-18)
(0.0393705 -0.0297467 -2.09104e-18)
(0.136867 0.00494643 9.542e-20)
(0.183368 -0.00550048 1.21746e-18)
(0.264686 -0.0284663 -2.25943e-18)
(-0.0826374 -0.230791 -7.23289e-19)
(0.363122 1.07317 2.86412e-19)
(0.714186 0.829538 -1.74078e-19)
(0.864588 0.724275 -4.2023e-19)
(0.950744 0.630512 1.2364e-19)
(1.00229 0.547145 3.09091e-19)
(1.03439 0.475662 0)
(1.05552 0.415316 0)
(1.07024 0.364883 0)
(1.08099 0.322812 0)
(1.08894 0.287455 1.37068e-19)
(1.0946 0.257265 -1.27906e-19)
(1.09819 0.230972 -5.23057e-21)
(1.09984 0.207644 -1.10653e-19)
(1.09964 0.186585 0)
(1.09767 0.167267 1.94481e-19)
(1.09397 0.149279 -2.81006e-19)
(1.08854 0.132295 8.51568e-20)
(1.08136 0.116067 -1.69772e-19)
(1.07241 0.100385 7.89721e-20)
(1.06176 0.0849275 -2.40401e-19)
(1.04952 0.0693001 2.29106e-19)
(1.03499 0.054516 -1.51225e-19)
(1.01496 0.0460049 -7.9153e-20)
(0.992884 0.045418 0)
(0.329355 0.882846 -3.33507e-19)
(0.629434 0.778396 -7.89507e-20)
(0.788838 0.691522 3.09767e-19)
(0.885109 0.60372 -9.96256e-20)
(0.945038 0.523943 -3.26755e-19)
(0.984386 0.455279 0)
(1.01166 0.397608 0)
(1.03156 0.34965 1.77477e-19)
(1.04662 0.309744 -1.64843e-19)
(1.05818 0.27619 -1.48236e-19)
(1.06688 0.247447 1.38405e-19)
(1.07307 0.222296 -3.95808e-21)
(1.07701 0.199865 1.18733e-19)
(1.07886 0.179511 0)
(1.07877 0.160744 1.00097e-19)
(1.07682 0.143184 -2.99263e-19)
(1.07307 0.126529 -4.82225e-21)
(1.06754 0.110552 8.81552e-20)
(1.06024 0.0950648 8.46898e-20)
(1.0513 0.0797837 2.50598e-19)
(1.0409 0.0643718 -2.48733e-19)
(1.02833 0.0498276 3.3008e-19)
(1.01033 0.0411298 -2.39524e-19)
(0.990792 0.0395108 0)
(0.307307 0.77222 4.35581e-19)
(0.569817 0.718219 1.99057e-19)
(0.725969 0.64519 -8.48025e-20)
(0.826693 0.565686 3.08137e-19)
(0.892831 0.492179 1.29356e-19)
(0.938271 0.428488 -1.20313e-19)
(0.970964 0.374958 0)
(0.99549 0.330446 1.92398e-19)
(1.01445 0.293355 -1.70084e-19)
(1.02928 0.26206 3.2084e-19)
(1.04075 0.235106 -1.48204e-19)
(1.04935 0.211378 5.19704e-21)
(1.05542 0.190096 1.26401e-19)
(1.05921 0.170678 1.20589e-19)
(1.06091 0.152683 1.07152e-19)
(1.06067 0.135764 0)
(1.05856 0.119645 9.71289e-20)
(1.05465 0.104125 -5.13851e-21)
(1.04899 0.0890383 -9.50547e-20)
(1.04175 0.0741449 0)
(1.03317 0.0591717 -2.6471e-19)
(1.02253 0.0450829 6.90237e-19)
(1.00657 0.0363469 -3.35867e-19)
(0.989493 0.0339053 0)
(0.293283 0.679022 1.88076e-19)
(0.524672 0.64917 -5.78166e-19)
(0.674505 0.589431 3.87779e-19)
(0.776548 0.51975 -4.8656e-19)
(0.846849 0.45405 -1.47869e-19)
(0.896979 0.396702 0)
(0.934118 0.348284 0)
(0.962562 0.307884 -2.05838e-19)
(0.984876 0.274072 9.55579e-21)
(1.00256 0.245377 0)
(1.0165 0.220487 -1.53622e-19)
(1.02727 0.198428 -1.40906e-19)
(1.03529 0.178518 -2.62817e-19)
(1.04088 0.16025 2.11282e-21)
(1.04427 0.143233 -1.19301e-19)
(1.04564 0.127153 0)
(1.04511 0.111766 -1.02415e-19)
(1.04276 0.0968946 5.04679e-19)
(1.03869 0.0824043 1.94769e-19)