/*--------------------------------*- C++ -*----------------------------------*\
  =========                 |
  \\      /  F ield         | OpenFOAM: The Open Source CFD Toolbox
   \\    /   O peration     | Website:  https://openfoam.org
    \\  /    A nd           | Version:  11
     \\/     M anipulation  |
\*---------------------------------------------------------------------------*/
FoamFile
{
    format      ascii;
    class       surfaceVectorField;
    location    "1.58";
    object      Uf;
}
// * * * * * * * * * * * * * * * * * * * * * * * * * * * * * * * * * * * * * //

dimensions      [0 1 -1 0 0 0 0];

internalField   nonuniform List<vector> 
5640
(
(-0.0295489 0.037497 -1.16461e-18)
(-0.0305702 0.0285386 -1.09041e-18)
(-0.063313 0.03964 2.90954e-19)
(-0.0577966 0.0374975 3.80619e-19)
(-0.0895949 0.0417947 3.59629e-19)
(-0.101798 0.0298854 1.3031e-20)
(-0.109848 0.0512852 2.11727e-19)
(-0.1241 0.0334655 3.27368e-20)
(-0.15582 0.0771918 1.96954e-19)
(-0.140957 0.0507633 -7.26239e-20)
(-0.233372 0.0432513 4.37955e-20)
(-0.271667 0.130148 -2.9248e-19)
(-0.0548649 0.0298095 3.69896e-19)
(-0.0459727 0.0234057 7.0671e-21)
(-0.0991682 0.026186 1.17691e-19)
(-0.0854472 0.029877 2.61686e-20)
(-0.132814 0.0234285 -3.12652e-19)
(-0.135202 0.0172415 -1.92885e-20)
(-0.162353 0.0289276 -2.52388e-19)
(-0.163378 0.0160133 0)
(-0.202158 0.044793 -2.45149e-19)
(-0.194583 0.0273708 -1.15167e-19)
(-0.256096 0.0431743 -7.486e-20)
(-0.273267 0.0974159 2.00542e-19)
(-0.0725394 0.0259995 -3.41422e-19)
(-0.0581758 0.0217986 4.60007e-21)
(-0.123427 0.0197479 -1.08876e-19)
(-0.10721 0.0259213 2.68116e-21)
(-0.162745 0.0125825 2.92712e-19)
(-0.159911 0.0106522 2.3106e-19)
(-0.196979 0.0141498 1.4045e-19)
(-0.191981 0.00541603 8.23074e-20)
(-0.23444 0.0314663 2.23191e-20)
(-0.226006 0.0130341 -2.68494e-19)
(-0.265563 0.0360416 -1.20779e-19)
(-0.276383 0.0808821 -2.49943e-19)
(-0.0884171 0.0235739 3.46374e-19)
(-0.0708209 0.0206772 3.67237e-19)
(-0.144157 0.0157304 3.31329e-19)
(-0.12684 0.0229115 3.66157e-19)
(-0.186215 0.00580496 2.4438e-20)
(-0.180511 0.00671893 -5.49554e-19)
(-0.220406 0.00442939 -3.15922e-19)
(-0.21346 -0.00125653 8.23074e-20)
(-0.25058 0.0204196 -4.19123e-19)
(-0.243709 0.00366892 -1.8731e-20)
(-0.267003 0.025865 1.11686e-19)
(-0.272179 0.0624876 -3.06557e-20)
(-0.104501 0.0216512 3.846e-19)
(-0.0843981 0.0192034 7.76647e-19)
(-0.162682 0.0129207 -4.76024e-19)
(-0.144857 0.0199777 1.96673e-20)
(-0.205038 0.00155322 -5.15006e-19)
(-0.197908 0.00435098 -2.96371e-19)
(-0.235987 -0.00208526 3.82191e-19)
(-0.229449 -0.00540753 2.54392e-20)
(-0.256901 0.0108201 5.12776e-19)
(-0.253022 -0.002985 3.92191e-19)
(-0.262138 0.0153583 2.16925e-19)
(-0.261368 0.0443508 4.1589e-19)
(-0.11961 0.0187215 4.53895e-19)
(-0.098404 0.0174652 -5.27042e-19)
(-0.178958 0.0106893 2.13228e-19)
(-0.160989 0.0169374 3.48693e-19)
(-0.219998 -0.000956529 2.32047e-19)
(-0.21234 0.00314165 1.56682e-19)
(-0.245829 -0.00637139 2.51436e-20)
(-0.240883 -0.0075428 2.72169e-19)
(-0.256668 0.00258128 1.03488e-19)
(-0.256749 -0.00767407 -1.87323e-19)
(-0.252499 0.00580057 -1.72572e-19)
(-0.245288 0.0277959 -1.38732e-19)
(-0.13416 0.0161244 -6.87862e-19)
(-0.111668 0.0164797 -4.41605e-19)
(-0.192794 0.0089759 2.99141e-19)
(-0.174499 0.0145167 6.95437e-21)
(-0.231362 -0.00200838 1.90635e-19)
(-0.223844 0.00303444 -2.37408e-19)
(-0.251292 -0.00874653 7.25956e-20)
(-0.248554 -0.00779293 5.21351e-20)
(-0.251957 -0.00393919 -4.63863e-19)
(-0.256628 -0.0105351 -8.396e-20)
(-0.239198 -0.00198343 3.41493e-20)
(-0.225054 0.0137406 -1.8275e-19)
(-0.147819 0.0159671 2.26558e-19)
(-0.123426 0.0166126 1.0106e-18)
(-0.203798 0.00846163 -5.19545e-19)
(-0.185157 0.0135402 -3.22132e-19)
(-0.239565 -0.00153113 -3.85924e-19)
(-0.232588 0.00425789 2.73253e-19)
(-0.253518 -0.00932552 -1.0031e-19)
(-0.25336 -0.0062899 -2.18478e-19)
(-0.243933 -0.00834868 4.10878e-19)
(-0.253752 -0.0114764 -7.99852e-20)
(-0.223062 -0.00734041 2.10124e-19)
(-0.201301 0.00285609 2.20977e-19)
(-0.157659 0.0156622 5.38798e-19)
(-0.133809 0.0171671 -1.20585e-22)
(-0.212152 0.00935422 4.45614e-19)
(-0.193263 0.0140378 0)
(-0.24521 0.000567564 4.58081e-19)
(-0.238892 0.00699871 4.65748e-19)
(-0.253423 -0.00808663 -2.02032e-19)
(-0.256114 -0.00315389 -2.38676e-20)
(-0.233449 -0.0103458 -2.88441e-19)
(-0.24887 -0.0102857 -1.82437e-19)
(-0.204803 -0.00983946 -1.03903e-19)
(-0.17444 -0.00436383 2.50189e-20)
(-0.165827 0.0164275 -5.38116e-19)
(-0.142549 0.0181 -1.01753e-18)
(-0.218187 0.0117448 3.17717e-22)
(-0.199094 0.0159466 2.93706e-19)
(-0.248863 0.00425027 3.43049e-22)
(-0.2432 0.0113168 -2.29419e-19)
(-0.251618 -0.00494784 0)
(-0.257393 0.00160048 0)
(-0.221165 -0.00965565 0)
(-0.242635 -0.00681474 1.66296e-19)
(-0.185151 -0.00927285 1.44617e-19)
(-0.144876 -0.00758544 1.77011e-20)
(-0.172286 0.0180862 -2.61351e-19)
(-0.149442 0.0193616 -2.46881e-19)
(-0.222256 0.0156435 8.62096e-20)
(-0.202871 0.01924 9.40902e-21)
(-0.25099 0.0095454 -2.37535e-19)
(-0.245935 0.0171905 -2.44161e-19)
(-0.248687 0.000177845 1.61634e-19)
(-0.257649 0.00804571 0)
(-0.207855 -0.00621408 3.11433e-19)
(-0.235747 -0.00106347 -1.08334e-21)
(-0.164866 -0.00571933 -1.43245e-21)
(-0.113084 -0.00667311 2.45693e-19)
(-0.17683 0.0205266 9.43663e-21)
(-0.154277 0.0210359 7.59356e-19)
(-0.22466 0.0210171 -3.10043e-19)
(-0.204816 0.0238503 -1.23584e-19)
(-0.25201 0.016466 -1.4875e-20)
(-0.247449 0.0246031 -2.1609e-20)
(-0.245193 0.0072769 -1.62846e-19)
(-0.257329 0.0161788 0)
(-0.194249 -0.000108202 -3.14284e-19)
(-0.2289 0.00690643 -1.67543e-19)
(-0.144825 0.000407555 -1.46229e-19)
(-0.0795527 -0.00180955 -3.45777e-19)
(-0.179365 0.0237952 6.77485e-19)
(-0.156832 0.0234778 3.69843e-19)
(-0.225664 0.0277956 1.60789e-19)
(-0.205146 0.0296588 1.27096e-20)
(-0.252302 0.0249952 -7.46396e-21)
(-0.248029 0.0335198 -2.18234e-20)
(-0.24172 0.0162616 0)
(-0.256866 0.0259454 2.48141e-20)
(-0.181186 0.0083909 0)
(-0.222832 0.0169808 -5.48081e-20)
(-0.126122 0.0083602 0)
(-0.0448909 0.00637631 6.11821e-20)
(-0.179906 0.0282364 -2.74392e-19)
(-0.156851 0.0277169 -3.84748e-19)
(-0.225522 0.0358449 -1.68357e-19)
(-0.204119 0.0365179 -2.20298e-19)
(-0.252217 0.0350789 8.73983e-21)
(-0.247893 0.0438617 -1.46034e-20)
(-0.23889 0.027001 -2.77623e-20)
(-0.256666 0.037265 7.5516e-20)
(-0.169678 0.018716 -5.6122e-20)
(-0.218412 0.0290783 -1.03795e-20)
(-0.109831 0.0172077 0)
(-0.0097579 0.0172726 -3.15569e-20)
(-0.178713 0.0343586 -3.39778e-19)
(-0.15418 0.0359896 -1.28292e-19)
(-0.224486 0.0451663 -7.52964e-20)
(-0.202007 0.044189 2.23626e-20)
(-0.252023 0.0466323 4.8989e-20)
(-0.247216 0.0554759 -1.49641e-20)
(-0.237319 0.0394007 9.52871e-20)
(-0.257054 0.0500375 1.23171e-20)
(-0.160838 0.0304649 4.54734e-20)
(-0.216561 0.0432373 4.44088e-20)
(-0.0973938 0.0263864 4.94278e-21)
(0.0250011 0.0296435 3.20279e-20)
(-0.176034 0.0435855 2.24036e-19)
(-0.149017 0.0494521 1.27691e-19)
(-0.22288 0.0554567 8.41165e-20)
(-0.199346 0.051994 3.71392e-20)
(-0.251922 0.0594945 -5.25406e-20)
(-0.246059 0.0680418 -3.11545e-20)
(-0.2375 0.0534152 -3.94428e-20)
(-0.258202 0.0641334 -5.06199e-20)
(-0.155771 0.0442861 4.82429e-21)
(-0.217793 0.059671 2.33839e-20)
(-0.09025 0.0360584 3.68056e-21)
(0.0586339 0.044198 2.18238e-21)
(-0.169906 0.0551615 -5.39102e-20)
(-0.141485 0.0572139 0)
(-0.220827 0.0659032 -7.51532e-20)
(-0.196479 0.0584899 -1.88294e-20)
(-0.251951 0.0734083 -2.86003e-20)
(-0.244218 0.0810162 1.47058e-20)
(-0.239701 0.0690515 1.01329e-20)
(-0.260049 0.0794054 -6.60418e-20)
(-0.155383 0.0601655 2.27125e-20)
(-0.22254 0.0787453 -4.81802e-20)
(-0.0890903 0.0468955 -1.26223e-21)
(0.0900408 0.0630818 -4.18183e-22)
(-0.163539 0.0575701 3.6259e-20)
(-0.131797 0.0542012 1.97899e-19)
(-0.217739 0.0751248 6.97166e-20)
(-0.191483 0.0628988 3.84789e-20)
(-0.251798 0.0880213 -2.00124e-20)
(-0.241062 0.093879 3.09159e-20)
(-0.243871 0.0863917 -1.2481e-19)
(-0.262205 0.0956732 1.11105e-19)
(-0.160153 0.0789125 -7.32318e-20)
(-0.230773 0.100757 -3.52983e-20)
(-0.0940465 0.0594842 1.03615e-19)
(0.117692 0.0889324 0)
(-0.155519 0.055995 2.09316e-19)
(-0.120129 0.0484446 1.97159e-19)
(-0.212648 0.0829939 0)
(-0.18346 0.0654179 1.50274e-19)
(-0.250832 0.103006 1.59359e-19)
(-0.23586 0.106294 8.0413e-21)
(-0.249566 0.105476 2.04618e-19)
(-0.263924 0.112587 5.26985e-20)
(-0.170134 0.100914 1.31668e-19)
(-0.24211 0.125974 3.60742e-20)
(-0.104923 0.0739782 -1.06657e-20)
(0.139694 0.123092 1.20834e-19)
(-0.143964 0.0537309 1.41395e-19)
(-0.106911 0.0425659 -2.01063e-19)
(-0.204585 0.0895338 1.63749e-19)
(-0.172099 0.0659742 -1.58136e-20)
(-0.24815 0.117953 -1.00418e-19)
(-0.227866 0.117966 -1.2687e-19)
(-0.255897 0.126323 -1.15688e-19)
(-0.263902 0.129157 -2.59796e-19)
(-0.185014 0.12636 -1.11709e-19)
(-0.256016 0.155411 -7.82937e-20)
(-0.121142 0.0903567 -9.31556e-20)
(0.153968 0.166163 -2.89446e-20)
(-0.129915 0.0503284 -3.70183e-19)
(-0.0925353 0.0363491 -1.9476e-19)
(-0.193205 0.0945878 -3.02797e-19)
(-0.157022 0.0643946 -1.6654e-19)
(-0.242737 0.131958 -2.81757e-19)
(-0.216449 0.128511 7.28195e-21)
(-0.2616 0.148986 -2.20594e-19)
(-0.260033 0.14425 -2.52035e-20)
(-0.204332 0.156386 -5.93841e-20)
(-0.271588 0.19095 2.79087e-20)
(-0.141967 0.108651 2.1297e-20)
(0.16016 0.219048 -7.05893e-20)
(-0.114969 0.0450849 7.25451e-21)
(-0.0772368 0.0290338 5.02367e-19)
(-0.17867 0.097711 1.35871e-19)
(-0.137651 0.0599378 -3.63428e-19)
(-0.233405 0.144238 2.65213e-19)
(-0.200822 0.136851 1.4191e-19)
(-0.265488 0.173645 2.29892e-19)
(-0.248949 0.155732 3.7983e-19)
(-0.228053 0.192207 1.09355e-19)
(-0.287462 0.234735 -1.49815e-19)
(-0.165006 0.125681 -1.56276e-19)
(0.160973 0.284209 0)
(-0.0972589 0.0363562 1.83644e-19)
(-0.0584908 0.0133441 4.86012e-19)
(-0.160411 0.0975447 -3.78894e-19)
(-0.109418 0.0438608 -3.57362e-19)
(-0.218805 0.151487 2.48489e-19)
(-0.176852 0.133601 0)
(-0.265177 0.197975 1.49733e-20)
(-0.221557 0.15124 -1.98208e-20)
(-0.254769 0.23366 -4.61568e-19)
(-0.300004 0.286052 2.67682e-19)
(-0.179647 0.120089 -3.185e-20)
(0.158361 0.359734 -2.82067e-19)
(-0.0659316 0.0126151 -9.52976e-21)
(-0.126444 0.0799511 7.52875e-22)
(-0.1815 0.136151 -2.61131e-19)
(-0.241012 0.21152 2.45219e-19)
(-0.257151 0.274535 8.66081e-19)
(0.156643 0.421393 2.30642e-19)
(-0.253355 0.255295 -4.62087e-19)
(-0.280222 0.212047 -1.46446e-19)
(-0.253104 0.265991 -1.20347e-19)
(-0.205094 0.267154 -1.0555e-19)
(-0.232979 0.251046 -6.99906e-20)
(-0.238069 0.275512 1.76324e-19)
(-0.130335 0.261659 -1.46719e-19)
(-0.155829 0.25381 -1.60549e-19)
(-0.187346 0.275156 1.26669e-19)
(-0.032149 0.245688 -2.641e-19)
(-0.0558888 0.243644 -8.85346e-20)
(-0.114068 0.264542 -1.48505e-19)
(0.0887664 0.218347 -1.16783e-19)
(0.0675323 0.222256 5.70849e-20)
(-0.0178023 0.243801 -1.15036e-19)
(0.23057 0.178138 -5.75104e-20)
(0.212861 0.18875 0)
(0.100416 0.210998 -5.73137e-20)
(0.389508 0.124253 -7.78643e-21)
(0.376691 0.14217 -5.83223e-20)
(0.23869 0.164306 -1.14814e-19)
(0.559602 0.0575672 -5.26535e-20)
(0.553351 0.0828096 -5.42422e-20)
(0.393157 0.103173 5.46691e-20)
(0.73303 -0.0190926 8.9886e-20)
(0.734718 0.0128608 -6.81251e-21)
(0.557589 0.0292114 3.47341e-21)
(0.901408 -0.101281 1.11608e-19)
(0.911725 -0.0638784 3.021e-19)
(0.724165 -0.0538309 3.12522e-19)
(1.05565 -0.183273 -1.55202e-20)
(1.07472 -0.142316 -1.88354e-19)
(0.885 -0.140878 -2.99527e-19)
(1.18599 -0.258467 1.30327e-20)
(1.21295 -0.216257 7.09055e-20)
(1.03151 -0.225735 -4.65404e-21)
(1.28493 -0.320709 3.34444e-21)
(1.31762 -0.279583 -1.44462e-19)
(1.15425 -0.301357 1.71103e-20)
(1.35002 -0.366216 6.8837e-20)
(1.38558 -0.327998 6.82677e-20)
(1.2464 -0.361774 7.12181e-20)
(1.38427 -0.394326 4.05936e-20)
(1.42059 -0.360113 -4.3543e-20)
(1.30676 -0.403742 1.05417e-19)
(1.39403 -0.406398 7.26079e-20)
(1.42941 -0.37748 1.50891e-19)
(1.33847 -0.427349 -1.06235e-19)
(1.3891 -0.407591 -1.4343e-20)
(1.42209 -0.382271 1.38079e-20)
(1.34764 -0.434245 3.16188e-20)
(1.3753 -0.401543 1.83481e-20)
(1.40614 -0.37965 -7.71304e-20)
(1.34557 -0.430857 -7.42698e-20)
(1.35275 -0.388454 8.0164e-20)
(1.38161 -0.370093 4.36574e-20)
(1.33386 -0.421692 6.5044e-20)
(1.32477 -0.370135 2.60722e-20)
(1.35141 -0.354802 -2.59394e-20)
(1.31422 -0.405023 -9.26997e-22)
(1.29365 -0.348346 3.73575e-20)
(1.31843 -0.335636 4.46971e-20)
(1.28984 -0.383821 3.95575e-22)
(1.2595 -0.322993 1.53727e-20)
(1.283 -0.313274 1.83573e-21)
(1.26198 -0.359844 1.30307e-20)
(1.22011 -0.290847 -2.02041e-20)
(1.24375 -0.286938 -1.95257e-21)
(1.22975 -0.332841 -2.2257e-20)
(1.19676 -0.25126 0)
(1.18881 -0.297649 1.64827e-20)
(-0.257787 0.213369 2.18149e-19)
(-0.285918 0.168144 4.54522e-20)
(-0.183797 0.238424 -1.17662e-19)
(-0.217872 0.216689 -3.66255e-20)
(-0.0829584 0.236378 -1.04003e-19)
(-0.117955 0.224271 -1.27466e-19)
(0.042055 0.221163 2.26447e-19)
(0.00825519 0.216165 -5.39945e-20)
(0.18998 0.193991 1.73553e-19)
(0.158894 0.195863 1.14581e-19)
(0.357507 0.154488 0)
(0.330774 0.163774 5.24062e-20)
(0.539188 0.102752 -1.07512e-19)
(0.518614 0.119829 0)
(0.727101 0.0402565 -1.36499e-20)
(0.714288 0.0650255 -2.11629e-19)
(0.911645 -0.0299067 1.98912e-19)
(0.907373 0.00185195 2.02299e-19)
(1.08249 -0.103211 5.81179e-21)
(1.08694 -0.0659676 -8.35785e-20)
(1.22853 -0.174057 -9.88623e-20)
(1.24111 -0.133398 -7.34203e-21)
(1.34039 -0.236562 -8.58044e-20)
(1.35936 -0.194898 -6.04061e-21)
(1.41407 -0.286241 -7.33186e-20)
(1.43709 -0.245754 -1.37692e-19)
(1.4525 -0.321303 -4.31798e-20)
(1.47753 -0.28358 -4.80853e-20)
(1.46345 -0.342518 7.42057e-20)
(1.48932 -0.308487 -9.22657e-20)
(1.45647 -0.352596 9.83462e-20)
(1.48166 -0.322516 1.14357e-19)
(1.43869 -0.353648 -4.52751e-20)
(1.46299 -0.327397 -4.53091e-20)
(1.41223 -0.347666 -5.00746e-20)
(1.43599 -0.325153 -3.49715e-20)
(1.38026 -0.336073 -5.87485e-20)
(1.40339 -0.316951 -4.23853e-21)
(1.34526 -0.320062 -6.93623e-21)
(1.36745 -0.303959 -3.94877e-20)
(1.30809 -0.300401 9.44e-21)
(1.32954 -0.287142 5.45872e-20)
(1.26845 -0.276618 -1.42376e-20)
(1.28976 -0.266817 -7.53781e-20)
(1.22386 -0.245469 1.8501e-20)
(1.24659 -0.241833 3.85561e-20)
(1.19643 -0.207112 0)
(-0.246651 0.173312 -2.04263e-19)
(-0.277801 0.130765 -1.74021e-19)
(-0.153781 0.203113 -4.29507e-20)
(-0.193593 0.178798 1.05054e-19)
(-0.0286486 0.204866 -7.88239e-20)
(-0.0720694 0.189851 -8.92211e-20)
(0.123052 0.191952 -1.70416e-19)
(0.0803408 0.184712 5.45989e-20)
(0.297768 0.167089 -8.31093e-21)
(0.258464 0.167471 -4.00222e-21)
(0.490113 0.13089 5.31357e-20)
(0.456599 0.139421 5.24061e-20)
(0.692125 0.0841068 -1.01398e-19)
(0.666354 0.100997 0)
(0.892889 0.0285878 -9.12509e-21)
(0.875888 0.053526 -7.12624e-21)
(1.08053 -0.0324848 -7.61458e-20)
(1.07242 -0.000598949 1.05843e-19)
(1.24272 -0.094841 -9.62492e-20)
(1.24294 -0.0578471 -1.79958e-19)
(1.3684 -0.153396 8.54669e-20)
(1.37543 -0.11363 1.54201e-19)
(1.4523 -0.203578 -6.97997e-20)
(1.46412 -0.163401 6.60421e-20)
(1.49724 -0.242723 -1.13245e-19)
(1.51209 -0.20405 3.55963e-20)
(1.51193 -0.27046 -9.29844e-20)
(1.52859 -0.234564 -5.10335e-20)
(1.50623 -0.288023 -4.52287e-20)
(1.52381 -0.255499 -1.15383e-20)
(1.48757 -0.296861 -2.84704e-20)
(1.50568 -0.267935 0)
(1.46019 -0.298463 -3.17044e-20)
(1.47873 -0.273164 -7.82225e-21)
(1.4272 -0.294051 1.22023e-20)
(1.44599 -0.272163 -9.57536e-20)
(1.39065 -0.284558 1.52573e-20)
(1.40941 -0.265841 -7.11344e-21)
(1.3519 -0.270858 2.17346e-20)
(1.37052 -0.255081 -1.32001e-20)
(1.31153 -0.253399 -2.69924e-20)
(1.33021 -0.24061 4.97708e-20)
(1.26889 -0.231505 -3.71752e-20)
(1.28827 -0.222385 -6.34312e-20)
(1.22138 -0.202177 2.02768e-20)
(1.2432 -0.19906 3.6259e-20)
(1.19155 -0.166053 0)
(-0.225975 0.13618 1.2958e-19)
(-0.260586 0.0979639 3.04491e-19)
(-0.114657 0.165563 6.2563e-20)
(-0.160681 0.140813 3.56953e-20)
(0.0345747 0.170511 4.08089e-20)
(-0.0166649 0.154029 -5.86692e-20)
(0.213409 0.161359 2.18546e-19)
(0.162966 0.152803 1.10836e-19)
(0.415076 0.141288 5.31688e-20)
(0.369372 0.14097 -4.78618e-20)
(0.630886 0.111314 0)
(0.592801 0.119817 0)
(0.848337 0.0722459 9.43635e-20)
(0.819547 0.0897478 -9.41539e-20)
(1.05344 0.0259854 1.03056e-19)
(1.03417 0.0515815 1.83792e-19)
(1.23242 -0.0246376 3.86833e-21)
(1.22197 0.00737967 3.82576e-21)
(1.37271 -0.0757936 6.95808e-20)
(1.36958 -0.0395344 -7.08735e-20)
(1.46795 -0.12323 1.25849e-19)
(1.47028 -0.0851494 1.36997e-19)
(1.52101 -0.163712 1.60802e-19)
(1.5272 -0.125883 4.93177e-20)
(1.54124 -0.195769 8.85238e-20)
(1.55015 -0.15964 1.43941e-19)
(1.53909 -0.219381 2.66843e-20)
(1.54991 -0.185811 -1.29552e-19)
(1.52252 -0.235148 3.35988e-20)
(1.53481 -0.204643 -5.69008e-20)
(1.49661 -0.243922 2.07075e-20)
(1.51007 -0.216705 3.05265e-20)
(1.46455 -0.246519 -6.98776e-20)
(1.47892 -0.222604 6.74918e-20)
(1.42833 -0.24368 -1.14021e-19)
(1.44336 -0.222976 -7.8616e-20)
(1.38946 -0.236197 -3.50289e-20)
(1.40495 -0.218525 -8.49924e-21)
(1.34907 -0.224742 1.35986e-20)
(1.365 -0.209992 -1.32001e-20)
(1.30733 -0.209484 1.57426e-20)
(1.32394 -0.197806 1.51311e-20)
(1.26331 -0.189626 4.82969e-22)
(1.28127 -0.181707 1.33218e-20)
(1.21433 -0.162503 1.61906e-20)
(1.23553 -0.16017 9.65552e-21)
(1.18332 -0.129268 -4.84306e-21)
(-0.19748 0.101946 2.16139e-19)
(-0.237034 0.0692238 2.37661e-20)
(-0.0660596 0.128911 -8.32638e-20)
(-0.11915 0.105219 -1.65076e-21)
(0.10893 0.137027 5.68028e-21)
(0.0499752 0.120213 3.2369e-20)
(0.316198 0.133523 -1.55323e-19)
(0.259 0.124563 7.58541e-20)
(0.544656 0.120992 -1.01758e-19)
(0.494198 0.12087 5.78673e-22)
(0.779431 0.0999213 -9.28432e-20)
(0.738785 0.109273 1.3703e-19)
(1.00335 0.070614 -1.23012e-20)
(0.973415 0.0891953 -1.3773e-19)
(1.2005 0.0342631 8.9252e-20)
(1.18043 0.0605703 8.82003e-20)
(1.35665 -0.00667724 -7.00848e-20)
(1.34478 0.0251343 0)
(1.4645 -0.0485702 -1.63576e-21)
(1.45888 -0.0137152 -1.32453e-19)
(1.5271 -0.0878139 5.91645e-20)
(1.52611 -0.0520786 7.22675e-20)
(1.55446 -0.121908 3.4601e-20)
(1.55689 -0.0868612 -5.43404e-20)
(1.5576 -0.149701 -8.07145e-20)
(1.56259 -0.116351 1.27068e-19)
(1.54496 -0.170979 -2.10548e-19)
(1.55197 -0.139948 -6.43572e-20)
(1.52207 -0.186001 -5.83423e-20)
(1.53074 -0.157662 -1.88043e-19)
(1.49232 -0.195138 7.62139e-20)
(1.50243 -0.169725 5.10477e-20)
(1.45783 -0.198825 5.89302e-20)
(1.46918 -0.17644 6.29747e-20)
(1.42019 -0.197632 2.54238e-20)
(1.43256 -0.178226 -2.19996e-22)
(1.38072 -0.192198 1.24144e-20)
(1.39394 -0.175638 1.23321e-20)
(1.34014 -0.182964 -1.29892e-20)
(1.35422 -0.169248 -2.03551e-20)
(1.29825 -0.169903 1.09571e-20)
(1.31344 -0.159244 3.08825e-21)
(1.25387 -0.152187 1.96066e-20)
(1.27089 -0.14525 2.74119e-20)
(1.20431 -0.127504 -2.06975e-20)
(1.22517 -0.125574 -6.13724e-21)
(1.17294 -0.0970522 -5.81711e-21)
(-0.161829 0.0714819 -1.9291e-19)
(-0.208426 0.0447079 -1.48593e-19)
(-0.0070354 0.0958948 1.1327e-19)
(-0.0686624 0.0739974 1.38449e-19)
(0.196683 0.108328 9.82845e-20)
(0.129664 0.0917861 -1.46341e-19)
(0.433903 0.112963 2.32973e-19)
(0.37068 0.104322 -7.62978e-20)
(0.68584 0.110583 2.37251e-19)
(0.632354 0.111473 1.00772e-19)
(0.930539 0.0999747 9.87832e-20)
(0.889322 0.110897 -3.88049e-20)
(1.14826 0.0803896 -4.41355e-20)
(1.11875 0.100223 3.39194e-20)
(1.32251 0.0522867 0)
(1.30269 0.0789927 -7.1075e-20)
(1.4448 0.0183997 -6.08939e-20)
(1.43239 0.0493816 6.10061e-21)
(1.51849 -0.0173225 -5.3097e-20)
(1.51156 0.0156222 -1.12825e-19)
(1.55434 -0.0513601 -3.54705e-20)
(1.55147 -0.0181621 6.65411e-21)
(1.564 -0.0814793 3.89252e-20)
(1.56417 -0.0491602 -8.5717e-20)
(1.55641 -0.106648 1.39951e-19)
(1.55895 -0.075933 8.26564e-20)
(1.53752 -0.126568 -4.20209e-20)
(1.54201 -0.0979371 5.70703e-20)
(1.51107 -0.141259 -7.85399e-20)
(1.51729 -0.115056 -1.17402e-19)
(1.4794 -0.150875 3.80295e-20)
(1.4872 -0.127333 4.03859e-20)
(1.44412 -0.155685 4.17751e-21)
(1.45334 -0.134908 4.2024e-20)
(1.40656 -0.156105 -1.29885e-20)
(1.41699 -0.13807 7.71869e-21)
(1.3677 -0.1526 -2.02193e-20)
(1.37924 -0.137229 -1.3248e-20)
(1.32783 -0.145433 -5.63989e-21)
(1.34055 -0.132795 -1.78585e-20)
(1.28646 -0.134469 1.77058e-20)
(1.30061 -0.124831 1.38604e-20)
(1.24226 -0.118914 1.76589e-21)
(1.25862 -0.112863 5.48162e-21)
(1.19262 -0.0968091 -1.92663e-20)
(1.21327 -0.0950733 4.87761e-21)
(1.16132 -0.0690979 -5.51164e-21)
(-0.119213 0.0458612 1.75599e-19)
(-0.175317 0.024765 -2.02587e-21)
(0.0635368 0.0690498 -1.15124e-19)
(-0.00862035 0.0488788 -1.40826e-19)
(0.299722 0.0881233 -3.23506e-19)
(0.224019 0.0721614 -2.78388e-20)
(0.565869 0.103822 -2.11658e-19)
(0.497752 0.0959011 -7.96734e-20)
(0.83316 0.113066 -1.732e-19)
(0.778797 0.115653 0)
(1.07509 0.112336 -1.01905e-19)
(1.03511 0.125168 -2.10886e-19)
(1.27107 0.0996989 8.32858e-21)
(1.24322 0.120784 3.79212e-20)
(1.41067 0.0764148 -6.44264e-20)
(1.39203 0.103089 -9.93445e-21)
(1.49747 0.046495 -4.45072e-20)
(1.48547 0.0762415 6.63783e-20)
(1.54324 0.0144951 -5.07223e-20)
(1.53601 0.0454182 9.89001e-24)
(1.56044 -0.0162143 -4.1661e-20)
(1.55669 0.0146046 7.8439e-21)
(1.55866 -0.0437433 -4.14886e-20)
(1.55757 -0.013859 2.11095e-20)
(1.54437 -0.0672327 0)
(1.54541 -0.0388346 -4.84879e-20)
(1.52177 -0.0863568 -1.80555e-20)
(1.52464 -0.0598444 0)
(1.49351 -0.101018 9.65086e-22)
(1.49807 -0.0767037 -3.51897e-20)
(1.46132 -0.111234 4.42771e-20)
(1.46747 -0.0893478 -1.19438e-20)
(1.42645 -0.117156 4.58139e-20)
(1.43409 -0.0978131 4.24559e-20)
(1.38993 -0.119086 7.93892e-21)
(1.39889 -0.10229 6.03423e-21)
(1.35235 -0.117346 -1.08565e-20)
(1.36261 -0.103067 -4.23676e-21)
(1.31365 -0.112074 7.75217e-23)
(1.32534 -0.100423 -9.81141e-23)
(1.27315 -0.103087 -8.49418e-23)
(1.28651 -0.094371 -2.45076e-21)
(1.22942 -0.0896725 1.52566e-20)
(1.24528 -0.0843532 4.14693e-21)
(1.18002 -0.0702154 2.76836e-20)
(1.2005 -0.0684529 7.74721e-21)
(1.14906 -0.0451136 -4.934e-21)
(-0.0694629 0.0260916 -3.15368e-19)
(-0.137947 0.00974301 1.02471e-21)
(0.146667 0.050921 -5.59918e-20)
(0.0617649 0.0314819 -1.40538e-19)
(0.417604 0.0801029 2.16842e-19)
(0.333304 0.0642911 8.93605e-20)
(0.707154 0.108636 1.31692e-19)
(0.636343 0.102124 1.29526e-19)
(0.977829 0.128821 -3.44253e-20)
(0.924792 0.133639 8.54189e-20)
(1.201 0.134544 -7.6743e-20)
(1.16384 0.149387 8.13023e-20)
(1.36244 0.124588 2.00213e-20)
(1.33733 0.146661 -7.43534e-20)
(1.46537 0.102845 1.21086e-19)
(1.44865 0.129222 4.84027e-22)
(1.52287 0.07488 1.10946e-19)
(1.51188 0.103355 1.54365e-20)
(1.54872 0.0452527 5.79532e-20)
(1.54175 0.0743527 9.24711e-20)
(1.55344 0.0167951 6.95166e-20)
(1.54941 0.0455655 3.49585e-20)
(1.54419 -0.00899729 1.40234e-20)
(1.54243 0.0188172 3.55463e-20)
(1.5257 -0.0314079 -4.89136e-20)
(1.52581 -0.00498362 -2.70816e-20)
(1.50105 -0.0501033 -1.6638e-20)
(1.50281 -0.0254037 0)
(1.4722 -0.0649198 -4.76399e-20)
(1.47554 -0.0422245 6.93124e-21)
(1.44045 -0.0758005 -1.42063e-20)
(1.44534 -0.0553265 -4.03713e-20)
(1.40677 -0.0828162 3.12413e-21)
(1.41313 -0.0646867 7.55917e-21)
(1.37182 -0.0861708 -5.8505e-21)
(1.37959 -0.0704168 -1.24823e-20)
(1.33585 -0.0860705 6.63416e-21)
(1.34509 -0.0727026 6.79951e-21)
(1.29852 -0.0825685 -2.46933e-21)
(1.30939 -0.0717324 -2.45359e-21)
(1.25901 -0.0754773 0)
(1.27177 -0.0675045 0)
(1.21592 -0.0641975 3.30527e-21)
(1.23141 -0.0593985 3.99586e-21)
(1.167 -0.0474272 3.34418e-21)
(1.18733 -0.0453967 1.67051e-22)
(1.13659 -0.0247279 -4.39557e-21)
(-0.0122275 0.0132461 1.79528e-19)
(-0.0963319 -6.32115e-05 1.96554e-19)
(0.242528 0.0435244 0)
(0.143035 0.0236599 -1.28705e-19)
(0.547166 0.086288 0)
(0.455705 0.070552 -3.09106e-20)
(0.850137 0.127795 8.39905e-20)
(0.779222 0.123327 -1.20135e-19)
(1.10808 0.155109 2.02152e-19)
(1.05856 0.162616 1.04119e-19)
(1.29837 0.16207 8.59085e-20)
(1.26539 0.178963 1.17216e-19)
(1.42216 0.151324 -9.50155e-20)
(1.40032 0.174141 2.13786e-20)
(1.4941 0.129492 -1.05512e-19)
(1.47949 0.155488 7.21002e-21)
(1.53007 0.102567 -2.0179e-21)
(1.52024 0.129926 -3.00499e-20)
(1.5421 0.0744994 7.00763e-20)
(1.53562 0.10208 6.91057e-20)
(1.53831 0.047535 1.49837e-21)
(1.5343 0.0746128 4.98251e-20)
(1.52411 0.0228662 -5.71168e-21)
(1.52201 0.0489644 -4.68148e-20)
(1.50305 0.00110779 2.15926e-20)
(1.50254 0.025886 2.14047e-20)
(1.47747 -0.0174135 2.35115e-20)
(1.47843 0.00576911 0)
(1.44888 -0.0325089 1.46114e-20)
(1.45127 -0.011165 1.92432e-20)
(1.41825 -0.0440848 -1.89342e-20)
(1.42209 -0.0247798 -7.59097e-21)
(1.3862 -0.052158 -7.90191e-21)
(1.3915 -0.0350207 -8.47247e-21)
(1.3531 -0.0568525 1.15421e-22)
(1.35986 -0.0419396 1.32769e-22)
(1.31887 -0.0582905 -2.09925e-21)
(1.32723 -0.045645 -9.41099e-21)
(1.28297 -0.056476 0)
(1.29314 -0.0462689 5.86487e-21)
(1.24452 -0.0512385 3.97118e-21)
(1.25679 -0.0438149 0)
(1.20219 -0.0421004 7.55e-22)
(1.21737 -0.0376097 1.17056e-22)
(1.15397 -0.0280426 -7.67339e-21)
(1.17411 -0.0255198 -3.28421e-21)
(1.12422 -0.00750163 -4.39557e-21)
(0.0523944 0.00773214 -1.06321e-19)
(-0.0506789 -0.00434231 1.13627e-19)
(0.349806 0.049089 -1.62236e-19)
(0.235368 0.0269068 8.80582e-20)
(0.682439 0.107184 -1.49386e-19)
(0.586694 0.0923654 -8.88574e-20)
(0.983953 0.158644 -1.07111e-19)
(0.916235 0.157147 -4.71708e-20)
(1.21372 0.187129 1.74452e-20)
(1.16963 0.197812 -7.93528e-20)
(1.36588 0.19122 5.51313e-20)
(1.33748 0.210068 0)
(1.45657 0.178143 1.23786e-19)
(1.43783 0.201601 8.46642e-22)
(1.50494 0.155694 8.22468e-20)
(1.49223 0.181379 -1.39906e-20)
(1.52545 0.129292 4.18483e-20)
(1.51674 0.155752 -3.21567e-21)
(1.52774 0.102156 4.90555e-20)
(1.5218 0.12851 4.37239e-22)
(1.51807 0.0760938 1.30387e-21)
(1.51417 0.101789 2.14426e-20)
(1.50059 0.0520902 -2.03308e-20)
(1.49829 0.0767686 -2.01441e-20)
(1.47811 0.0306775 0)
(1.47714 0.0540843 0)
(1.45243 0.0121534 -4.34011e-21)
(1.45272 0.0340757 0)
(1.42469 -0.00330024 -2.73381e-21)
(1.42625 0.0169364 -6.66444e-21)
(1.39556 -0.0155808 2.74953e-21)
(1.39847 0.00278798 -3.17413e-21)
(1.36538 -0.0246722 -2.19284e-22)
(1.36971 -0.00830741 3.38924e-21)
(1.33422 -0.0306387 -9.183e-21)
(1.34006 -0.0163604 3.94358e-21)
(1.30174 -0.0335451 -1.41515e-21)
(1.30932 -0.0214247 7.78055e-22)
(1.2673 -0.0333701 5.90249e-21)
(1.27685 -0.0235978 7.64255e-21)
(1.22998 -0.0299709 -3.93184e-21)
(1.2418 -0.0228981 -1.57339e-20)
(1.18854 -0.0229842 -3.97983e-21)
(1.2034 -0.0185997 1.13664e-20)
(1.14118 -0.0116392 0)
(1.16106 -0.0084236 -1.01514e-20)
(1.11218 0.0070165 4.08574e-21)
(0.124362 0.0108886 3.07213e-19)
(-0.000998596 -0.00300988 -1.17197e-19)
(0.465088 0.068412 1.6565e-19)
(0.337527 0.0428306 2.55191e-19)
(0.814943 0.141565 1.37224e-20)
(0.719131 0.128432 4.17983e-20)
(1.09869 0.196809 -2.30532e-20)
(1.03699 0.199145 7.4125e-20)
(1.29155 0.221072 -9.98108e-20)
(1.25341 0.235075 -4.41921e-20)
(1.40821 0.220386 -5.47796e-20)
(1.38395 0.241062 1.08679e-20)
(1.47273 0.204653 -1.37558e-19)
(1.45661 0.228726 -7.98359e-20)
(1.50366 0.18132 -1.00487e-19)
(1.49256 0.206821 -6.39857e-20)
(1.51298 0.154963 -4.52216e-20)
(1.50519 0.180741 -2.85676e-20)
(1.5083 0.128225 -2.7654e-20)
(1.5028 0.153598 -2.45897e-20)
(1.49455 0.102603 0)
(1.49073 0.127159 1.92224e-20)
(1.47503 0.0789268 0)
(1.47254 0.102412 -1.22193e-20)
(1.45196 0.0576485 0)
(1.45059 0.0798931 3.86438e-21)
(1.42675 0.0390151 -2.18656e-21)
(1.42645 0.0598724 -2.30192e-21)
(1.40024 0.0231715 -7.04895e-21)
(1.40106 0.0424885 2.04521e-21)
(1.37283 0.0102017 -2.58962e-21)
(1.37487 0.0278202 -8.37626e-21)
(1.3446 0.000133438 7.94339e-21)
(1.34801 0.0159125 8.55774e-21)
(1.31537 -0.00705639 1.40427e-20)
(1.32033 0.00677538 2.96051e-21)
(1.28464 -0.0113921 9.79821e-21)
(1.29144 0.000392099 6.77268e-21)
(1.25167 -0.0128381 -1.50575e-20)
(1.26059 -0.00331011 1.77768e-21)
(1.21556 -0.01128 -6.03022e-22)
(1.22692 -0.00436683 6.22676e-21)
(1.17512 -0.00645536 1.50503e-20)
(1.18965 -0.00199213 -7.1809e-21)
(1.1288 0.00219399 -6.14752e-21)
(1.14833 0.00628454 -1.46067e-20)
(1.10063 0.0192775 1.82808e-22)
(0.202813 0.0234588 -1.74645e-19)
(0.0526883 0.00395079 -1.37669e-19)
(0.583777 0.100875 1.35797e-19)
(0.44675 0.0730124 5.70347e-20)
(0.935956 0.185244 1.02014e-19)
(0.844254 0.17513 8.65921e-20)
(1.18902 0.237619 5.39892e-20)
(1.13461 0.244658 -3.06947e-20)
(1.34424 0.255027 6.63863e-20)
(1.3115 0.272196 1.01681e-19)
(1.43142 0.249271 -1.34994e-20)
(1.41054 0.271611 3.1145e-20)
(1.47597 0.230811 -6.30061e-21)
(1.46189 0.255512 -3.45655e-20)
(1.49394 0.206271 8.27e-21)
(1.48406 0.231713 2.95092e-20)
(1.49506 0.179501 -7.82259e-21)
(1.48793 0.204767 -2.7804e-20)
(1.48539 0.152715 2.18764e-20)
(1.48017 0.177285 5.87137e-21)
(1.46893 0.127178 7.33765e-21)
(1.46509 0.150763 1.5398e-20)
(1.44831 0.10359 -8.57598e-21)
(1.44558 0.126035 -1.39799e-20)
(1.42529 0.082312 1.6166e-21)
(1.42351 0.103532 8.79141e-21)
(1.40095 0.0635192 1.9176e-21)
(1.40009 0.0834383 -6.36124e-21)
(1.37587 0.0472934 7.54886e-22)
(1.37598 0.0658146 -3.09161e-21)
(1.35024 0.0336749 2.90347e-21)
(1.35146 0.0506726 5.17843e-21)
(1.32393 0.0226807 3.6166e-21)
(1.32646 0.0380163 -2.19679e-21)
(1.29658 0.01431 -4.34037e-21)
(1.30067 0.0278536 1.27393e-20)
(1.26758 0.00856778 -1.39661e-21)
(1.27357 0.0201873 -1.86831e-21)
(1.23614 0.00550269 2.18636e-20)
(1.24437 0.0149652 1.66518e-20)
(1.20132 0.0052085 -1.40092e-21)
(1.21216 0.0121405 1.58943e-20)
(1.16206 0.00786453 -2.71184e-20)
(1.17617 0.012567 1.29785e-20)
(1.11696 0.0138528 -8.57787e-21)
(1.13601 0.0189698 -2.76704e-20)
(1.08965 0.0297244 -4.06771e-21)
(0.285941 0.0462089 9.99575e-20)
(0.11045 0.0162693 3.55295e-20)
(0.699319 0.145165 5.94967e-21)
(0.558402 0.117508 -4.44173e-20)
(1.03845 0.233943 -4.55957e-20)
(0.954112 0.228214 -5.43651e-20)
(1.25478 0.278839 1.47834e-20)
(1.20753 0.290835 2.00835e-20)
(1.37652 0.288568 6.71824e-20)
(1.34821 0.308743 7.43041e-21)
(1.44037 0.277803 1.02192e-20)
(1.42204 0.301742 -1.1643e-20)
(1.46974 0.256484 4.21173e-22)
(1.45714 0.281854 -1.02825e-20)
(1.47805 0.230383 -5.99625e-21)
(1.46896 0.255864 1.09768e-20)
(1.47317 0.202791 -1.43269e-20)
(1.46639 0.227658 -1.71941e-20)
(1.46007 0.175601 -7.12155e-22)
(1.45488 0.199476 6.36849e-21)
(1.44196 0.149888 -5.65878e-21)
(1.43796 0.172598 -2.83204e-21)
(1.42099 0.126225 3.18067e-21)
(1.41794 0.147712 1.23378e-21)
(1.39851 0.104875 8.24974e-22)
(1.39629 0.125135 2.93929e-21)
(1.3753 0.0859198 -1.13773e-20)
(1.37389 0.104952 1.52966e-22)
(1.35174 0.0693563 1.27642e-21)
(1.35119 0.0871279 -2.77274e-21)
(1.32784 0.0551592 1.29128e-22)