/*--------------------------------*- C++ -*----------------------------------*\
  =========                 |
  \\      /  F ield         | OpenFOAM: The Open Source CFD Toolbox
   \\    /   O peration     | Website:  https://openfoam.org
    \\  /    A nd           | Version:  11
     \\/     M anipulation  |
\*---------------------------------------------------------------------------*/
FoamFile
{
    format      ascii;
    class       volScalarField;
    location    "0.12";
    object      epsilon;
}
// * * * * * * * * * * * * * * * * * * * * * * * * * * * * * * * * * * * * * //

dimensions      [0 2 -3 0 0 0 0];

internalField   nonuniform List<scalar> 
2880
(
2.96209
2.28322
1.99329
1.9095
2.46635
6.07567
1.04399
1.23604
1.25924
1.46325
3.1471
8.77519
1.32919
1.26928
1.3322
1.82553
4.47854
9.50276
1.68176
1.44613
1.55314
2.37074
5.61853
9.43277
1.97311
1.61159
1.80701
2.94215
6.31243
9.02675
2.22197
1.75611
2.06516
3.46133
6.59301
8.341
2.43985
1.8851
2.31553
3.88885
6.58863
7.61118
2.63092
2.00063
2.54951
4.20682
6.41933
6.91861
2.79594
2.10342
2.75905
4.40698
6.14372
6.29666
2.93488
2.19352
2.93662
4.50187
5.85372
5.75206
3.04803
2.27134
3.07706
4.52444
5.57791
5.28713
3.13655
2.33781
3.17969
4.50164
5.32775
4.903
3.19098
2.38837
3.25037
4.45142
5.11095
4.59768
3.19622
2.42034
3.29523
4.38902
4.93298
4.36785
3.15712
2.43584
3.31921
4.32813
4.79813
4.21221
3.06534
2.44106
3.32976
4.27991
4.70998
4.13672
2.92071
2.44408
3.33634
4.25502
4.67785
4.14168
2.72044
2.45662
3.35091
4.26263
4.70128
4.22453
2.46086
2.4959
3.38954
4.30939
4.79117
4.40629
2.13772
2.58872
3.47989
4.41836
4.976
4.69741
1.74689
2.76862
3.67317
4.62762
5.26525
5.1384
1.28517
3.11807
4.09579
5.03322
5.71139
5.93838
0.9294
3.96566
5.20615
6.01879
6.50501
7.92305
2.81029
7.0069
9.79492
10.3205
8.99657
6.20107
13.8092
5.30983
1.91121
0.69775
0.261015
0.106896
0.0492736
0.0253753
0.0143074
0.00871374
0.00561378
0.00378435
0.00265735
0.00194015
0.00147131
0.00115735
0.000942144
0.000791029
0.000682029
0.000600702
0.000537194
0.00048543
0.000442328
0.000406337
11.4498
5.02068
1.90315
0.706037
0.265531
0.108725
0.0501048
0.0258611
0.0146579
0.00899657
0.00585311
0.00398918
0.00283226
0.00208873
0.00159685
0.00126287
0.0010303
0.00086404
0.00074171
0.000648461
0.00057402
0.000511999
0.000459275
0.00041456
9.64747
4.55149
1.82816
0.694295
0.264829
0.109305
0.050633
0.0262685
0.0149906
0.00928046
0.00609961
0.0042038
0.00301826
0.00224899
0.0017342
0.00137998
0.00112955
0.000947445
0.000810869
0.000704572
0.000617851
0.000544003
0.000479916
0.000424424
8.22363
4.00674
1.72367
0.671033
0.261132
0.10908
0.0509513
0.0266236
0.0153147
0.00956851
0.00635446
0.00442871
0.0032157
0.00242133
0.00188391
0.00150943
0.00124084
0.00104233
0.000890705
0.000770304
0.000669959
0.000582604
0.000505161
0.00043631
7.06859
3.52809
1.59336
0.642011
0.255498
0.108389
0.0511504
0.026956
0.0156422
0.00986562
0.00661993
0.00466513
0.00342538
0.00260649
0.00204677
0.00165211
0.0013652
0.00114988
0.000982554
0.000847093
0.000731818
0.000629216
0.000536165
0.00045073
6.12355
3.11764
1.45196
0.61047
0.248815
0.107433
0.0513012
0.0272911
0.0159867
0.0101776
0.0068992
0.00491503
0.00364869
0.0028056
0.00222386
0.00180915
0.00150388
0.00127149
0.00108794
0.000936588
0.000805149
0.000685492
0.000574295
0.000468331
5.34989
2.77284
1.32571
0.577931
0.241879
0.10642
0.0514689
0.0276558
0.0163585
0.010511
0.0071964
0.00518126
0.00388779
0.00302046
0.00241681
0.00198216
0.00165851
0.00140887
0.00120869
0.00104074
0.000891975
0.000753396
0.000621177
0.000489902
4.71861
2.48647
1.21667
0.546787
0.235356
0.105562
0.0517223
0.0280793
0.0167709
0.0108742
0.00751721
0.00546798
0.00414601
0.00325393
0.00262826
0.00217364
0.00183156
0.00156449
0.00134731
0.00116209
0.00099485
0.000835415
0.00067894
0.00051646
4.2063
2.2509
1.1248
0.518921
0.229819
0.105078
0.0521448
0.0285982
0.0172427
0.0112786
0.00786952
0.0057812
0.00442832
0.00351044
0.00286236
0.00238765
0.00202704
0.00174234
0.00150772
0.00130446
0.00111749
0.000935116
0.000750677
0.000549415
3.79349
2.05952
1.04907
0.495531
0.22572
0.105073
0.0528254
0.0292595
0.0177993
0.0117397
0.00826416
0.00612933
0.00474186
0.00379653
0.00312546
0.0026306
0.00225157
0.00194924
0.00169688
0.00147476
0.00126657
0.00105885
0.000841951
0.000591191
3.46464
1.90661
0.988606
0.477419
0.22344
0.105827
0.0538711
0.030122
0.0184737
0.0122784
0.00871572
0.00652373
0.00509634
0.00412125
0.00342662
0.00291208
0.00251564
0.00219687
0.00192779
0.00168724
0.00145731
0.00122222
0.000967544
0.000650439
3.20786
1.78791
0.942524
0.465949
0.223049
0.107691
0.0554799
0.0312746
0.0193112
0.0129223
0.00924359
0.00697937
0.00550444
0.00449628
0.00377753
0.00324471
0.00283382
0.00250293
0.00222265
0.00197042
0.00172664
0.00147264
0.00118739
0.000800341
3.014
1.70003
0.910776
0.461763
0.225288
0.110831
0.0577768
0.0328042
0.0203673
0.0137078
0.00987334
0.0075158
0.00598223
0.00493577
0.00419162
0.00364237
0.00322195
0.00288744
0.0026095
0.00236712
0.00214554
0.00194066
0.00177817
0.00173534
2.87761
1.64125
0.891662
0.461727
0.230466
0.115532
0.0609399
0.0348193
0.0217126
0.0146825
0.0106393
0.00815932
0.00655089
0.00545749
0.00468437
0.00411924
0.00369416
0.00336653
0.00310934
0.00290624
0.00274914
0.00264243
0.0026189
0.00272413
2.79595
1.61177
0.889342
0.468935
0.239267
0.122214
0.065207
0.0374706
0.023446
0.0159133
0.0115897
0.00894709
0.00724048
0.00608657
0.00527722
0.00469388
0.00426658
0.00395364
0.00373134
0.00358805
0.00352007
0.00353235
0.00364188
0.00386183
2.77202
1.61359
0.902084
0.484649
0.252622
0.131432
0.0709355
0.0409819
0.0257097
0.0174962
0.0127944
0.00993348
0.00809564
0.00686105
0.00600338
0.00539566
0.0049651
0.00467078
0.00449189
0.00442025
0.00445055
0.0045812
0.0048286
0.00515996
2.80532
1.65063
0.934337
0.510977
0.27193
0.144088
0.0786756
0.0456892
0.028716
0.0195741
0.0143573
0.0111995
0.00918327
0.00783834
0.00691322
0.00626906
0.00582865
0.00555103
0.0054177
0.0054227
0.00554889
0.00581213
0.0062016
0.00666082
2.91341
1.73149
0.991697
0.551459
0.299393
0.161554
0.0892711
0.0521102
0.0327916
0.0223657
0.0164364
0.0128683
0.010605
0.00910588
0.00808356
0.00738186
0.00691644
0.00664502
0.00655154
0.00662152
0.00685187
0.00725247
0.00780031
0.00841582
3.11321
1.86998
1.08345
0.611921
0.338558
0.185996
0.104049
0.0610593
0.0384539
0.026217
0.0192799
0.0151316
0.012519
0.0107998
0.00963461
0.00884111
0.00832318
0.00803495
0.00796312
0.00808236
0.00840846
0.00894844
0.00967443
0.0104845
3.4227
2.08497
1.22439
0.702221
0.395594
0.221198
0.125323
0.0739469
0.0465746
0.0317008
0.0232922
0.0182985
0.015178
0.0131379
0.0117602
0.0108216
0.0102064
0.00986158
0.00977599
0.00991721
0.0103111
0.0109823
0.0119021
0.0129539
3.85915
2.39575
1.43479
0.838109
0.4808
0.27351
0.156983
0.0931867
0.0586706
0.0398036
0.0291618
0.022888
0.0190026
0.0164812
0.0147823
0.0136168
0.0128353
0.0123703
0.0122105
0.0123306
0.0127356
0.0135053
0.0146197
0.0159676
4.46422
2.81332
1.73459
1.04277
0.613306
0.355984
0.207149
0.12367
0.0777154
0.052407
0.038162
0.0298331
0.0247316
0.0214539
0.0192546
0.0177334
0.0166807
0.0159986
0.0156659
0.0157011
0.0160315
0.0168002
0.0180805
0.0197833
5.36399
3.34666
2.12753
1.33042
0.813049
0.487051
0.289438
0.174395
0.109468
0.0732367
0.0527957
0.0409228
0.03374
0.0291887
0.0261658
0.0240715
0.0225841
0.0215437
0.0208972
0.0206784
0.0208639
0.0214843
0.0227886
0.0248861
6.89514
4.29345
2.71601
1.75377
1.1176
0.699077
0.430836
0.265201
0.16694
0.110449
0.0783187
0.0597832
0.0487306
0.0418488
0.037356
0.0342781
0.032076
0.0304627
0.0293071
0.0285983
0.028428
0.0287663
0.0298341
0.0322008
2.19565
3.58673
4.39805
4.42126
4.09026
3.8032
0.96419
1.62303
2.05083
2.20034
2.22819
2.36138
0.256953
1.26676
1.56768
1.69707
1.77387
1.94279
0.280807
1.1879
1.4005
1.51343
1.60322
1.76318
1.3293
1.20058
1.33541
1.43666
1.53068
1.67525
1.61168
1.23129
1.31455
1.40719
1.50203
1.63256
1.85892
1.26821
1.31444
1.40107
1.4954
1.61462
2.0689
1.30488
1.32521
1.40809
1.50165
1.61135
2.24157
1.33802
1.34129
1.42299
1.51623
1.61845
2.37776
1.3662
1.35982
1.44277
1.53664
1.63341
2.47892
1.38899
1.37929
1.46593
1.56179
1.65512
2.54213
1.40561
1.39893
1.49188
1.59141
1.68341
2.56322
1.41575
1.4185
1.52062
1.62591
1.71887
2.54138
1.41936
1.43816
1.5526
1.66625
1.76281
2.47426
1.41653
1.45835
1.58871
1.71401
1.81739
2.36096
1.40779
1.47994
1.63034
1.77159
1.88604
2.20094
1.39428
1.50438
1.67963
1.84259
1.97421
1.99368
1.37801
1.53417
1.73996
1.93258
2.09091
1.7384
1.36246
1.57384
1.8171
2.05064
2.25201
1.43922
1.3543
1.63236
1.92191
2.21253
2.48817
1.18582
1.36736
1.72975
2.07799
2.44825
2.86662
0.254273
1.44597
1.92028
2.34823
2.82544
3.57773
0.962168
1.78546
2.41073
2.96367
3.56025
5.52735
2.2373
3.66048
4.71177
5.43051
5.81339
26.4634
5.5024
4.6071
3.34384
2.3405
1.58044
1.0362
0.666246
0.424416
0.272697
0.180849
0.126618
0.09475
0.0756971
0.0639665
0.0564801
0.05149
0.0479949
0.0454257
0.0434759
0.0420164
0.0410594
0.0408059
0.0413941
0.0435864
3.72654
4.25541
3.85489
3.10198
2.3485
1.66971
1.1269
0.747094
0.491523
0.327563
0.225838
0.164015
0.12682
0.104518
0.0907402
0.0817543
0.0756319
0.0712595
0.0679675
0.0653705
0.0632804
0.0616835
0.0611636
0.0626646
2.73862
3.58056
3.7887
3.62675
3.24282
2.69474
2.09518
1.49813
1.01987
0.686479
0.464987
0.325342
0.239805
0.187717
0.155923
0.136679
0.124569
0.116328
0.110372
0.105779
0.101973
0.098647
0.0953589
0.0955582
2.26078
2.96057
3.44307
3.64097
3.62124
3.47772
3.17279
2.723
2.17817
1.60186
1.10614
0.759031
0.531559
0.388481
0.301176
0.248053
0.215548
0.195686
0.182953
0.173925
0.166823
0.160856
0.154395
0.150761
2.01887
2.53909
3.00317
3.35054
3.55375
3.63762
3.60451
3.482
3.23147
2.83657
2.34215
1.7973
1.30282
0.924098
0.673188
0.515345
0.41754
0.356706
0.31823
0.293339
0.276217
0.263342
0.251578
0.24093
1.88767
2.2732
2.65169
2.97872
3.23243
3.41407
3.52359
3.55445
3.51617
3.40214
3.17602
2.82433
2.39415
1.93726
1.51002
1.16285
0.909261
0.73603
0.621444
0.545455
0.493054
0.454861
0.42534
0.396763
1.81467
2.10556
2.39879
2.66341
2.88447
3.05999
3.19164
3.27954
3.32412
3.3189
3.26816
3.14696
2.93655
2.66061
2.34088
2.01146
1.70496
1.44285
1.23145
1.0663
0.938904
0.838931
0.760833
0.687871
1.77539
1.99939
2.22332
2.42497
2.5942
2.73008
2.83574
2.91495
2.97022
3.00112
3.00366
2.97947
2.91386
2.79605
2.64084
2.45898
2.26088
2.05743
1.85988
1.67554
1.50816
1.3589
1.23033
1.11475
1.75762
1.93393
2.10524
2.25601
2.37956
2.47646
2.55068
2.60702
2.64925
2.67908
2.69579
2.69708
2.68216
2.64233
2.5743
2.48026
2.36429
2.23308
2.09313
1.95097
1.81102
1.67726
1.55621
1.45555
1.75454
1.89784
2.03081
2.14449
2.23526
2.30462
2.35662
2.3957
2.42523
2.44685
2.46043
2.46446
2.45792
2.43649
2.39691
2.33916
2.2645
2.1752
2.0742
1.96503
1.85294
1.74394
1.64517
1.56718
1.76364
1.8839
1.99173
2.0817
2.1531
2.20811
2.25009
2.28206
2.30578
2.32164
2.32888
2.32639
2.31273
2.28618
2.24639
2.19361
2.12852
2.05265
1.9684
1.87876
1.78751
1.69945
1.6203
1.55807
1.78373
1.88817
1.98025
2.05785
2.12109
2.17177
2.21209
2.24359
2.26676
2.28113
2.2855
2.27895
2.25969
2.22706
2.18124
2.12325
2.05457
1.97701
1.89278
1.80457
1.71591
1.63171
1.55769
1.50091
1.81482
1.90994
1.99345
2.06588
2.12795
2.18073
2.2249
2.26039
2.28632
2.30142
2.30425
2.29426
2.27006
2.23229
2.18176
2.11968
2.04757
1.96728
1.88089
1.79091
1.70072
1.61514
1.54001
1.48293
1.85796
1.94946
2.03146
2.10641
2.17489
2.23669
2.29077
2.33537
2.36837
2.38778
2.39197
2.3807
2.35273
2.30956
2.25255
2.18359
2.1049
2.01848
1.92661
1.83235
1.7385
1.64913
1.56975
1.5097
1.91535
2.0085
2.09558
2.18021
2.26212
2.33928
2.40866
2.46672
2.51008
2.53602
2.54278
2.53065
2.49824
2.44824
2.38242
2.30402
2.21569
2.11922
2.01723
1.91097
1.80561
1.70588
1.61744
1.5526
1.99059
2.09061
2.18944
2.29108
2.39357
2.4924
2.58196
2.65657
2.71137
2.74289
2.74946
2.73226
2.68868
2.62527
2.54175
2.43939
2.32256
2.19938
2.0744
1.95258
1.83604
1.72705
1.63051
1.55966
2.08943
2.20174
2.31965
2.44648
2.57735
2.704
2.81721
2.90838
2.97067
2.99989
2.9956
2.96012
2.88693
2.77568
2.6452
2.50574
2.36509
2.22294
2.08113
1.9415
1.80574
1.67764
1.56362
1.47803
2.22093
2.35128
2.49679
2.65827
2.82575
2.98512
3.12162
3.2224
3.27838
3.28514
3.24642
3.14003
2.99108
2.83341
2.66807
2.49648
2.31961
2.14251
1.96891
1.80158
1.64273
1.49479
1.36348
1.25969
2.39975
2.55365
2.73653
2.94313
3.15454
3.34708
3.49759
3.58789
3.60783
3.55483
3.40044
3.20718
3.001
2.77764
2.54424
2.31143
2.08667
1.87451
1.67737
1.49613
1.33091
1.18114
1.04935
0.936337
2.65003
2.83028
3.06046
3.32175
3.57946
3.79464
3.93287
3.97179
3.89912
3.68737
3.43205
3.14228
2.82686
2.50838
2.20351
1.92249
1.67013
1.44739
1.25289
1.08399
0.937818
0.810898
0.702396
0.604136
3.01254
3.21157
3.49516
3.81476
4.10797
4.31365
4.38704
4.30429
4.03353
3.68898
3.28361
2.85468
2.43745
2.05566
1.72133
1.43736
1.20069
1.00536
0.84458
0.711961
0.60225
0.511174
0.434984
0.370808
3.55622
3.73599
4.06628
4.432
4.72415
4.85494
4.78045
4.4553
4.00471
3.46614
2.90865
2.38693
1.93316
1.55806
1.25778
1.02145
0.8363
0.690478
0.574362
0.480772
0.404501
0.34198
0.289863
0.25208
4.39405
4.4389
4.78212
5.15308
5.3693
5.3282
4.96378
4.40293
3.71909
3.02093
2.39046
1.86904
1.46223
1.15451
0.923358
0.748152
0.61286
0.506071
0.420132
0.350033
0.292597
0.245776
0.208539
0.185647
5.69884
5.30632
5.60835
5.90389
5.93451
5.55983
4.90253
4.06434
3.21083
2.46204
1.86975
1.4301
1.11179
0.879412
0.704811
0.569449
0.46204
0.375338
0.304949
0.248179
0.203186
0.168752
0.144677
0.132991
2.63155
6.34717
9.88919
10.3267
8.79848
30.2049
0.943121
4.09188
5.57432
6.16786
6.92226
9.97604
1.30855
3.35641
4.31059
4.89474
5.75427
6.95502
1.79301
3.03162
3.72772
4.28919
5.07611
6.02925
2.21294
2.81521
3.37706
3.92165
4.6808
5.61497
2.56452
2.65305
3.13108
3.66378
4.42256
5.40311
2.84732
2.53072
2.94032
3.46394
4.23932
5.2961
3.06319
2.4326
2.78163
3.29723
4.10042
5.24839
3.21514
2.34859
2.64264
3.15012
3.9903
5.24599
3.30737
2.27282
2.51604
3.01456
3.90089
5.29418
3.33959
2.20185
2.39742
2.88521
3.82665
5.38873
3.32823
2.13461
2.28433
2.75814
3.7619
5.52611
3.26633
2.07261
2.17592
2.63027
3.70009
5.70128
3.17913
2.01936
2.07238
2.49958
3.63413
5.90739
3.06447
1.97057
1.97304
2.36509
3.55752
6.13449
2.92125
1.92264
1.87562
2.22643
3.46383
6.36809
2.74883
1.87111
1.77787
2.08312
3.34397
6.58831
2.54627
1.81028
1.6785
1.93397
3.18908
6.76756
2.31079
1.73303
1.57632
1.77908
2.99077
6.86872
2.03586
1.63164
1.47178
1.62142
2.74403
6.85043
1.70991
1.50263
1.37172
1.4708
2.45228
6.679
1.32066
1.36915
1.30717
1.35522
2.13728
6.32439
1.01886
1.40917
1.38534
1.3688
1.87913
5.70257
2.75708
2.58945
2.45144
2.12708
2.25768
5.20588
7.03846
6.19674
6.4296
6.54603
6.22294
5.52106
4.52218
3.4948
2.61029
1.93508
1.4528
1.11343
0.868608
0.684257
0.540752
0.427134
0.336496
0.264598
0.208479
0.165775
0.134558
0.113286
0.100803
0.0964633
7.02199
6.85871
7.06221
6.8764
6.23719
5.10793
3.89404
2.84914
2.06952
1.52792
1.15352
0.884748
0.682385
0.525809
0.403644
0.308557
0.235593
0.180757
0.140626
0.112306
0.0933712
0.0817922
0.0760122
0.0749243
6.8696
7.27361
7.35389
6.92991
5.84022
4.43972
3.20287
2.28676
1.6614
1.2344
0.929277
0.701028
0.526599
0.393282
0.29239
0.21743
0.162923
0.124212
0.0974908
0.0797483
0.0686592
0.0624634
0.060019
0.0602176
6.76413
7.45504
7.39492
6.64525
5.15231
3.7047
2.61115
1.86841
1.36551
1.00859
0.744273
0.54543
0.3967
0.287103
0.208015
0.152122
0.113378
0.0870666
0.0696642
0.0586306
0.0521409
0.0489543
0.048243
0.0488934
6.70048
7.47485
7.20449
6.04534
4.40225
3.08236
2.17526
1.56403
1.13412
0.819565
0.586686
0.415936
0.293159
0.206929
0.147603
0.107423
0.0805562
0.0628559
0.0514836
0.0445342
0.040707
0.0391521
0.0392277
0.0400456
6.66773
7.36524
6.84134
5.33566
3.75575
2.62202
1.85661
1.32364
0.938555
0.657493
0.454936
0.312382
0.214688
0.149172
0.105839
0.0773763
0.0587637
0.0467111
0.0391113
0.0346073
0.032306
0.0316125
0.0319675
0.0328668
6.67523
7.17812
6.39626
4.69167
3.26681
2.28379
1.60452
1.11942
0.769429
0.520566
0.348437
0.23294
0.157318
0.10852
0.0771585
0.0569439
0.0438737
0.0354764
0.030236
0.0272039
0.0257653
0.0254957
0.0259497
0.0267949
6.74719
6.979
5.92966
4.19616
2.90952
2.0197
1.39097
0.941333
0.624477
0.408014
0.265225
0.17375
0.11618
0.0801044
0.0573445
0.0428078
0.0334319
0.0274013
0.0236359
0.0214756
0.0204944
0.0203908
0.0208315
0.0215542
6.87778
6.82492
5.50346
3.82715
2.63342
1.79707
1.20289
0.785795
0.502631
0.317984
0.201827
0.130444
0.0869068
0.0601633
0.043454
0.0327992
0.0258954
0.021412
0.0185735
0.0169161
0.0161433
0.0160467
0.0163961
0.0169797
7.04638
6.73819
5.15111
3.54141
2.40517
1.60113
1.03596
0.651857
0.402517
0.247619
0.154376
0.0990158
0.0660119
0.0459805
0.0335064
0.0255247
0.0203029
0.0168534
0.0146068
0.0132288
0.0125134
0.0123219
0.0125213
0.0129488
7.24545
6.68113
4.8824
3.31892
2.20943
1.42565
0.888492
0.538393
0.321872
0.193503
0.119151
0.0761783
0.0509473
0.035722
0.0262301
0.0201163
0.0160653
0.0133285
0.0114736
0.010248
0.00950164
0.00914505
0.00912939
0.00936439
7.47038
6.64524
4.68344
3.13837
2.03485
1.267
0.759436
0.443789
0.257887
0.15229
0.0930494
0.0594766
0.0399422
0.0281704
0.020803
0.0160191
0.0128056
0.0105822
0.00900765
0.0078767
0.00706378
0.00649722
0.00616638
0.00613435
7.72207
6.62867
4.54756
2.98661
1.87578
1.12381
0.647861
0.366077
0.207683
0.12103
0.0736347
0.0471358
0.0317851
0.0225197
0.0166899
0.0128727
0.0102761
0.00844135
0.00709129
0.00604916
0.00519313
0.00443329
0.0037171
0.00314523
8.00478
6.63633
4.46311
2.85407
1.72919
0.995414
0.552543
0.30292
0.168518
0.0972939
0.0590849
0.0379064
0.0256524
0.0182321
0.0135365
0.0104386
0.00831027
0.0067844
0.00563483
0.00471187
0.00390563
0.00312569
0.00228842
0.00119503
8.32498
6.696
4.407
2.73317
1.59332
0.8811
0.471923
0.251971
0.138012
0.079179
0.048068
0.0309112
0.0209765
0.0149379
0.011097
0.00854879
0.0067874
0.00551651
0.00455307
0.0037762
0.00309836
0.0024498
0.0017647
0.000920655
8.68936
6.80555
4.37379
2.62065
1.46739
0.780041
0.404254
0.211031
0.114205
0.065244
0.0396245
0.0255331
0.0173584
0.0123715
0.00918719
0.00706704
0.00559734
0.00453484
0.00372911
0.00308081
0.00251801
0.00198497
0.00143673
0.000798372
9.10924
6.97082
4.35854
2.5141
1.35076
0.691193
0.347717
0.178168
0.0955375
0.0544109
0.0330644
0.0213347
0.014514
0.0103399
0.00766739
0.0058847
0.00464777
0.0037534
0.00307554
0.00253098
0.00206011
0.00161948
0.00118073
0.000699832
9.60369
7.19716
4.35455
2.4107
1.24245
0.613336
0.300678
0.151694
0.0807533
0.0458827
0.0278946
0.0180073
0.012243
0.0087064
0.00643858
0.00492542
0.0038764
0.00311932
0.00254718
0.00208967
0.00169725
0.00133603
0.000987644
0.000624637
10.2056
7.48959
4.35404
2.30738
1.14145
0.545348
0.2613
0.130133
0.0688967
0.0390811
0.023763
0.0153318
0.0104039
0.00737509
0.00543246
0.004138
0.00324305
0.0025998
0.00211644
0.00173297
0.00140794
0.00111444
0.00083994
0.000566545
10.969
7.84899
4.34522
2.20023
1.04701
0.485418
0.227995
0.112386
0.0592751
0.0335875
0.0204167
0.0131519
0.00889593
0.00627823
0.00460123
0.00348715
0.00272057
0.00217313
0.00176523
0.0014452
0.00117793
0.000941559
0.000726892
0.000521679
11.9792
8.26597
4.31008
2.08541
0.957038
0.431877
0.199511
0.0976117
0.051371
0.0290945
0.0176723
0.0113545
0.00764678
0.00536705
0.00391041
0.00294732
0.00228907
0.00182309
0.00147972
0.00121402
0.000995905
0.00080717
0.00064049
0.000487077
13.3749
8.63699
4.22565
1.95871
0.869473
0.383336
0.174855
0.0851681
0.0447999
0.0253763
0.0153956
0.00985759
0.00660352
0.00460573
0.00333441
0.00249917
0.00193317
0.00153681
0.00124864
0.00102925
0.000852565
0.000703107
0.00057462
0.000460444
15.3914
8.90977
4.06637
1.8127
0.782283
0.33872
0.153281
0.0745776
0.0392781
0.0222666
0.0134884
0.00860061
0.00572701
0.00396735
0.00285355
0.00212749
0.00164044
0.00130366
0.00106256
0.00088236
0.000740256
0.000622861
0.000524557
0.000439953
18.3817
8.98424
3.7897
1.64075
0.694424
0.297436
0.134288
0.0654976
0.034599
0.0196436
0.0118783
0.00753879
0.00498779
0.00343124
0.00245235
0.00181996
0.00140059
0.0011147
0.000913545
0.000766246
0.000652724
0.000561246
0.000486614
0.000424161
2.40092
7.49052
10.1617
11.4505
10.7479
54.7591
0.981445
3.47418
4.97162
6.35054
9.49645
17.8755
1.37656
2.69714
3.74005
4.91246
6.92981
10.3939
1.93914
2.44722
3.24601
4.26081
5.71446
7.48477
2.47991
2.36324
2.99487
3.87864
4.98786
6.0059
2.97164
2.34398
2.85025
3.61778
4.48135
5.0924
3.39832
2.35134
2.75789
3.42363
4.10218
4.46269
3.75151
2.36665
2.69303
3.27209
3.8091
4.00457
4.02773
2.37974
2.64336
3.1514
3.57908
3.6653
4.22653
2.38581
2.60274
3.05497
3.4007
3.41489
4.34928
2.38279
2.56837
2.9794
3.26807
3.23548
4.3984
2.37037
2.53939
2.92381
3.17699
3.11709
4.3768
2.34936
2.51609
2.88869
3.12602
3.05546
4.28765
2.32117
2.4994
2.87412
3.1136
3.04787
4.13066
2.28715
2.49045
2.88138
3.14158
3.0968
3.90419
2.24886
2.49111
2.91239
3.21366
3.2105
3.60873
2.20897
2.50443
2.9703
3.33723
3.40207
3.2465
2.17201
2.53555
3.0611
3.52129
3.69796
2.82192
2.14592
2.59397
3.19592
3.78141
4.14798
2.343
2.14448
2.69841
3.39607
4.14741
4.8532
1.82365
2.19745
2.89021
3.70878
4.68156
6.04954
1.28718
2.38084
3.27854
4.26256
5.51921
8.45098
0.932575
2.98668
4.26111
5.51186
7.054
14.6743
2.10793
6.18023
8.50948
10.1139
10.8979
45.0068
20.8251
7.94894
3.36015
1.44483
0.60719
0.259505
0.117591
0.0576917
0.0306138
0.0174176
0.0105118
0.00663851
0.0043633
0.00298112
0.00211826
0.00156635
0.00120492
0.000962348
0.000794887
0.000674987
0.000584859
0.00051412
0.000457902
0.000411949
12.358
6.16802
2.849
1.24341
0.524528
0.225436
0.103055
0.0509966
0.0272144
0.0155227
0.00934886
0.00587416
0.00383587
0.00260388
0.0018409
0.00135805
0.00104608
0.000840184
0.000700955
0.00060368
0.000532507
0.000478184
0.000436169
0.000402467
8.77035
4.97043
2.39929
1.05962
0.45061
0.19574
0.0905826
0.0452876
0.024319
0.0139086
0.00835875
0.00522572
0.00339137
0.00228875
0.00161159
0.00118778
0.000917797
0.000742782
0.000627044
0.000548293
0.000492317
0.00045084
0.000419682
0.000395083
6.79223
4.08969
2.02051
0.900698
0.387163
0.170512
0.0800305
0.0404533
0.0218612
0.0125358
0.0075173
0.00467717
0.00301821
0.00202674
0.001423
0.00104936
0.000814807
0.000665603
0.00056926
0.000505539
0.000461622
0.000430078
0.000407139
0.000389332
5.50731
3.41393
1.70869
0.768245
0.33433
0.149506
0.0712068
0.0363873
0.0197852
0.0113722
0.00680489
0.00421531
0.00270671
0.00181026
0.00126892
0.000937627
0.000732713
0.000604901
0.000524424
0.000472777
0.000438335
0.000414402
0.000397597
0.000384889
4.61623
2.89492
1.45801
0.660773
0.291272
0.13227
0.0638951
0.0329879
0.0180445
0.0103912
0.00620517
0.00382909
0.00244868
0.0016329
0.00114416
0.00084825
0.000667897
0.000557628
0.000489974
0.000447904
0.000420825
0.000402682
0.000390413
0.00038155
3.97263
2.49579
1.2597
0.575127
0.256703
0.118282
0.057882
0.0301597
0.016599
0.00956962
0.00570424
0.00350904
0.00223709
0.00148915
0.00104426
0.000777613
0.000617371
0.000521294
0.00046384
0.000429228
0.000407778
0.000394017
0.000385159
0.000379137
3.49585
2.18918
1.10477
0.507799
0.229276
0.107039
0.05298
0.027828
0.0153992
0.00888687
0.0052902
0.00324703
0.00206589
0.00137429
0.000965505
0.000722691
0.000578664
0.000493874
0.000444382
0.000415466
0.000398243
0.000387741
0.000381398
0.000377441
3.14065
1.95547
0.985384
0.455591
0.207778
0.0980968
0.0490224
0.0259238
0.0144125
0.00832625
0.00495292
0.00303606
0.00192989
0.00128437
0.000904772
0.00068101
0.000549779
0.000473753
0.000430309
0.000405622
0.000391484
0.000383345
0.000378814
0.000376307
2.87939
1.78058
0.895177
0.415833
0.191191
0.0910838
0.0458693
0.0243897
0.0136128
0.00787384
0.0046837
0.00287018
0.00182478
0.00121613
0.000859557
0.000650605
0.000529153
0.000459681
0.000420638
0.000398942
0.000386948
0.000380445
0.000377177
0.000375604
2.69413
1.65436
0.829191
0.386409
0.178705
0.085701
0.0434068
0.0231781
0.0129786
0.00751782
0.00447522
0.00274441
0.001747
0.00116696
0.0008279
0.000629967
0.000515608
0.000450733
0.000414649
0.000394873
0.000384198
0.000378797
0.000376282
0.000375232
2.57346
1.56968
0.783741
0.365719
0.169698
0.0817144
0.0415436
0.0222502
0.0124918
0.00724825
0.00432134
0.00265466
0.00169372
0.00113483
0.000808317
0.000617988
0.000508297
0.000446265
0.00041188
0.000393093
0.000383093
0.000378148
0.000375932
0.000375114
2.51109
1.52197
0.7563
0.352625
0.16371
0.0789457
0.0402077
0.0215744
0.0121371
0.00705677
0.00421692
0.00259765
0.00166274
0.00111825
0.000799754
0.000613915
0.00050667
0.000445839
0.000412031
0.000393445
0.000383388
0.000378333
0.000376017
0.000375129
2.50466
1.50888
0.745397
0.346394
0.160424
0.0772632
0.0393433
0.0211252
0.0119021
0.00693633
0.00415777
0.00257074
0.00165246
0.00111614
0.000801299
0.000616735
0.000509851
0.00044908
0.000414844
0.000395696
0.000385059
0.000379354
0.000376539
0.000375271
2.55575
1.53021
0.750589
0.346643
0.159637
0.0765736
0.0389073
0.0208819
0.011776
0.00688095
0.00414041
0.00257172
0.00166082
0.00112663
0.000811608
0.000626414
0.000518386
0.000456007
0.000420299
0.000399842
0.000388053
0.000381283
0.00037753
0.000375579
2.67204
1.58812
0.772213
0.353283
0.161243
0.0768129
0.0388664
0.020827
0.0117497
0.00688516
0.0041608
0.00259761
0.0016866
0.00114985
0.000831952
0.000643364
0.00053193
0.000466603
0.000428417
0.000405904
0.000392374
0.000384101
0.000379095
0.000376137
2.86635
1.68756
0.811339
0.366494
0.165212
0.0779372
0.0391927
0.0209452
0.0118145
0.00694402
0.00421704
0.00264841
0.00173051
0.00118683
0.000862075
0.000667294
0.000550661
0.000481043
0.00043938
0.000414058
0.000398198
0.000387943
0.00038129
0.000376979
3.16106
1.83659
0.870074
0.386698
0.171567
0.0799131
0.0398596
0.0212208
0.0119621
0.00705388
0.004308
0.00272424
0.00179263
0.00123687
0.000901771
0.000698479
0.000574885
0.000499631
0.000453464
0.000424542
0.000405724
0.000392973
0.000384245
0.000378193
3.59308
2.04752
0.951475
0.414491
0.180348
0.082703
0.040837
0.0216366
0.0121831
0.00720909
0.00442991
0.00282244
0.00187153
0.00129964
0.000951337
0.000737315
0.000605033
0.000522787
0.000471047
0.000437675
0.000415214
0.000399401
0.000388125
0.000379885
4.22521
2.3387
1.05942
0.450499
0.191548
0.0862445
0.0420848
0.0221711
0.0124665
0.00740387
0.00457979
0.00294162
0.00196666
0.00137526
0.00101112
0.000784289
0.000641642
0.00055104
0.000492607
0.000453867
0.000426998
0.000407484
0.000393119
0.000382168
5.17235
2.73752
1.19812
0.495066
0.205011
0.0904189
0.0435432
0.0227965
0.0127994
0.00763153
0.00475418
0.00308013
0.00207745
0.00146371
0.00108146
0.000839911
0.000685303
0.000584992
0.00051871
0.000473606
0.000441474
0.000417528
0.000399445
0.000385177
6.65487
3.28574
1.37059
0.547587
0.220242
0.0950074
0.0451236
0.0234759
0.0131666
0.0078845
0.00494912
0.00323602
0.00220308
0.00156485
0.00116258
0.000904648
0.000736605
0.000625277
0.000549974
0.000497461
0.000459137
0.000429925
0.000407305
0.000389025
9.27648
4.05897
1.57532
0.605267
0.236134
0.0996417
0.0467015
0.0241626
0.0135542
0.00815506
0.00516053
0.00340713
0.00234257
0.00167839
0.00125465
0.000978931
0.000796145
0.000672582
0.000587119
0.000526122
0.000480577
0.00044507
0.000416836
0.000393755
15.3786
5.11209
1.79192
0.660671
0.250646
0.103788
0.0481309
0.0248106
0.0139414
0.0084347
0.00538392
0.00359105
0.00249467
0.00180385
0.0013577
0.00106314
0.000864527
0.000727632
0.000630901
0.000560294
0.000506376
0.00046339
0.000428377
0.000399476
)
;

boundaryField
{
    rotor
    {
        type            epsilonWallFunction;
        value           nonuniform List<scalar> 
144
(
2.96209
2.28322
1.99329
1.9095
2.46635
6.07567
2.96209
1.04399
1.32919
1.68176
1.97311
2.22197
2.43985
2.63092
2.79594
2.93488
3.04803
3.13655
3.19098
3.19622
3.15712
3.06534
2.92071
2.72044
2.46086
2.13772
1.74689
1.28517
0.9294
2.81029
2.81029
7.0069
9.79492
10.3205
8.99657
6.20107
2.19565
3.58673
4.39805
4.42126
4.09026
3.8032
2.19565
0.96419
0.256953
0.280807
1.3293
1.61168
1.85892
2.0689
2.24157
2.37776
2.47892
2.54213
2.56322
2.54138
2.47426
2.36096
2.20094
1.99368
1.7384
1.43922
1.18582
0.254273
0.962168
2.2373
2.2373
3.66048
4.71177
5.43051
5.81339
26.4634
2.63155
6.34717
9.88919
10.3267
8.79848
30.2049
2.63155
0.943121
1.30855
1.79301
2.21294
2.56452
2.84732
3.06319
3.21514
3.30737
3.33959
3.32823
3.26633
3.17913
3.06447
2.92125
2.74883
2.54627
2.31079
2.03586
1.70991
1.32066
1.01886
2.75708
2.75708
2.58945
2.45144
2.12708
2.25768
5.20588
2.40092
7.49052
10.1617
11.4505
10.7479
54.7591
2.40092
0.981445
1.37656
1.93914
2.47991
2.97164
3.39832
3.75151
4.02773
4.22653
4.34928
4.3984
4.3768
4.28765
4.13066
3.90419
3.60873
3.2465
2.82192
2.343
1.82365
1.28718
0.932575
2.10793
2.10793
6.18023
8.50948
10.1139
10.8979
45.0068
)
;
    }
    freestream
    {
        type            inletOutlet;
        inletValue      uniform 0.000375;
        value           nonuniform List<scalar> 
96
(
0.000375
0.000375
0.000375
0.000375
0.000375
0.000375
0.000375
0.000375
0.000375
0.000375
0.000375
0.000375
0.00173534
0.00272413
0.00386183
0.00515996
0.00666082
0.00841582
0.0104845
0.0129539
0.0159676
0.0197833
0.0248861
0.0322008
0.0435864
0.0626646
0.0955582
0.150761
0.24093
0.396763
0.687871
1.11475
1.45555
1.56718
1.55807
1.50091
1.48293
1.5097
1.5526
1.55966
1.47803
1.25969
0.936337
0.604136
0.370808
0.25208
0.185647
0.132991
0.0964633
0.0749243
0.0602176
0.0488934
0.0400456
0.0328668
0.0267949
0.0215542
0.0169797
0.0129488
0.00936439
0.00613435
0.00314523
0.000375
0.000375
0.000375
0.000375
0.000375
0.000375
0.000375
0.000375
0.000375
0.000375
0.000375
0.000375
0.000375
0.000375
0.000375
0.000375
0.000375
0.000375
0.000375
0.000375
0.000375
0.000375
0.000375
0.000375
0.000375
0.000375
0.000375
0.000375
0.000375
0.000375
0.000375
0.000375
0.000375
0.000375
0.000375
)
;
    }
    frontAndBack
    {
        type            empty;
    }
}


// ************************************************************************* //
