/*--------------------------------*- C++ -*----------------------------------*\
  =========                 |
  \\      /  F ield         | OpenFOAM: The Open Source CFD Toolbox
   \\    /   O peration     | Website:  https://openfoam.org
    \\  /    A nd           | Version:  11
     \\/     M anipulation  |
\*---------------------------------------------------------------------------*/
FoamFile
{
    format      ascii;
    class       volScalarField;
    location    "0.12";
    object      k;
}
// * * * * * * * * * * * * * * * * * * * * * * * * * * * * * * * * * * * * * //

dimensions      [0 2 -2 0 0 0 0];

internalField   nonuniform List<scalar> 
2880
(
0.00636712
0.0094843
0.0135685
0.0193581
0.0349497
0.114922
0.0201272
0.0265308
0.0339494
0.0441247
0.0795705
0.167331
0.0269719
0.0357623
0.0473686
0.0646749
0.117059
0.20566
0.0315486
0.0439304
0.0594398
0.0838847
0.145374
0.220297
0.0350901
0.0518385
0.0710787
0.101382
0.164203
0.221457
0.0379783
0.0595269
0.0820387
0.116402
0.175809
0.218762
0.0404194
0.066942
0.0920649
0.128522
0.181912
0.212445
0.0425006
0.0739476
0.101043
0.138073
0.184265
0.205287
0.0442579
0.0804036
0.108943
0.145473
0.184294
0.198159
0.0457108
0.0861701
0.115763
0.151049
0.182984
0.191544
0.046877
0.0911124
0.121535
0.155172
0.181133
0.185723
0.0477791
0.0951008
0.126295
0.158203
0.179339
0.180867
0.0483314
0.0980807
0.130086
0.160445
0.17808
0.177098
0.0483849
0.100058
0.132958
0.162226
0.177604
0.174546
0.0479911
0.10102
0.134928
0.163754
0.177927
0.173511
0.0470577
0.100954
0.135961
0.165152
0.179026
0.173915
0.0455668
0.0998348
0.135992
0.166419
0.18122
0.17599
0.0434601
0.0976002
0.134904
0.167326
0.184252
0.180088
0.0406501
0.0941088
0.132515
0.167341
0.187427
0.185603
0.037009
0.0890601
0.128445
0.16569
0.189472
0.191483
0.0323481
0.0818598
0.122013
0.161055
0.188572
0.195466
0.0263616
0.0712938
0.111988
0.151682
0.182015
0.19328
0.0179079
0.0544079
0.0955077
0.134381
0.163868
0.176055
0.00604181
0.0291388
0.0670075
0.105113
0.127619
0.118299
0.302239
0.273786
0.178518
0.114044
0.0744302
0.0522998
0.0392779
0.0308697
0.0249695
0.0205637
0.0171522
0.0144584
0.0123068
0.0105752
0.00917432
0.00803729
0.00711334
0.00636301
0.00575413
0.00525796
0.00484716
0.00450006
0.00420345
0.00394969
0.278478
0.261301
0.175057
0.112306
0.073524
0.0517929
0.0390275
0.030815
0.0250734
0.0207914
0.0174722
0.0148417
0.0127285
0.0110142
0.00961336
0.00846225
0.0075125
0.00672668
0.00607459
0.0055294
0.00506536
0.00466218
0.00430835
0.00399894
0.258893
0.242454
0.169367
0.109771
0.0722964
0.051147
0.0387027
0.030714
0.0251453
0.0209983
0.0177808
0.0152224
0.0131552
0.0114654
0.0100709
0.0089112
0.00794015
0.00712217
0.00642866
0.00583431
0.00531463
0.00485043
0.00443216
0.00405671
0.242946
0.224379
0.161356
0.106494
0.0708814
0.0504109
0.0383254
0.0305769
0.0251901
0.021186
0.0180776
0.0155985
0.0135848
0.0119263
0.0105448
0.00938236
0.0083951
0.00754904
0.0068168
0.00617417
0.00559737
0.00506788
0.00457782
0.00412432
0.22917
0.207965
0.152327
0.102589
0.0692653
0.0496184
0.0379126
0.0304133
0.025213
0.0213568
0.0183632
0.0159695
0.0140157
0.0123952
0.0110331
0.009874
0.00887608
0.00800663
0.00723919
0.00655013
0.00591581
0.00531762
0.00474857
0.00420334
0.216825
0.193286
0.143528
0.0982581
0.0674652
0.0487692
0.0374734
0.0302305
0.025219
0.0215139
0.0186388
0.0163354
0.0144471
0.0128707
0.0115342
0.0103847
0.00938188
0.00849423
0.00769584
0.00696313
0.00627196
0.00560254
0.00494752
0.00429541
0.205417
0.180278
0.135306
0.0940896
0.065565
0.0478622
0.0370154
0.0300344
0.0252139
0.0216604
0.0189061
0.0166969
0.0148792
0.0133527
0.0120478
0.0109139
0.00991203
0.00901165
0.00818705
0.00741424
0.00666776
0.00592543
0.00517763
0.0044021
0.194983
0.168834
0.127827
0.0901896
0.0636437
0.0469245
0.0365471
0.0298303
0.0252017
0.0217995
0.0191678
0.0170562
0.0153136
0.0138423
0.0125751
0.0114628
0.0104679
0.00956048
0.00871466
0.00790565
0.00710599
0.00628974
0.00544246
0.00452503
0.185574
0.158847
0.12115
0.0866315
0.0618346
0.0459992
0.0360743
0.0296261
0.0251884
0.021936
0.0194278
0.0174166
0.0157537
0.0143434
0.01312
0.012036
0.0110547
0.0101463
0.0092846
0.00844346
0.00759288
0.00670195
0.00574809
0.00466648
0.177233
0.150222
0.115282
0.0834591
0.0602185
0.0451339
0.0356203
0.0294351
0.0251815
0.0220762
0.0196916
0.0177835
0.016205
0.014862
0.0136902
0.0126428
0.0116836
0.0107825
0.00991206
0.00904417
0.00814555
0.00717919
0.00610994
0.00483228
0.170003
0.142876
0.110218
0.0806964
0.0588105
0.0443692
0.0352171
0.0292731
0.0251892
0.0222274
0.0199659
0.0181635
0.0166746
0.0154066
0.0142962
0.0132973
0.0123737
0.0114944
0.01063
0.00974916
0.00881356
0.00777753
0.00658484
0.00505718
0.163934
0.136752
0.105954
0.0783548
0.0576147
0.043741
0.0349067
0.0291596
0.025227
0.0223998
0.0202589
0.0185638
0.01717
0.0159858
0.0149493
0.0140156
0.0131492
0.0123188
0.0114945
0.0106434
0.00972486
0.00868455
0.00743327
0.0056553
0.159073
0.131806
0.102487
0.0764479
0.0566665
0.0432992
0.0347105
0.0291097
0.0253079
0.0226043
0.0205795
0.0189921
0.0176976
0.0166057
0.0156565
0.0148076
0.0140264
0.0132858
0.0125623
0.011837
0.0110997
0.0103708
0.00975897
0.00952597
0.155529
0.128033
0.0998176
0.0750163
0.0560285
0.0430824
0.0346339
0.029132
0.0254437
0.0228521
0.0209374
0.0194559
0.0182629
0.0172693
0.0164181
0.0156712
0.015002
0.0143921
0.0138309
0.0133173
0.0128634
0.0125112
0.0123725
0.0125852
0.153436
0.125475
0.0979774
0.0740712
0.0558031
0.0430472
0.0346804
0.0292547
0.0256525
0.0231576
0.0213445
0.0199649
0.0188725
0.0179795
0.0172323
0.0165982
0.0160582
0.0156044
0.0152385
0.0149718
0.0148231
0.014826
0.0150353
0.0154843
0.153071
0.124298
0.0970765
0.0737944
0.0558586
0.0432447
0.0349041
0.0295035
0.0259556
0.0235387
0.0218162
0.020532
0.0195367
0.0187431
0.018101
0.0175836
0.0171798
0.0168906
0.0167265
0.0167042
0.016832
0.0171312
0.0176202
0.0182463
0.154222
0.124444
0.0971597
0.0741511
0.0563772
0.0437583
0.0353503
0.0299129
0.0263805
0.0240186
0.022373
0.0211754
0.0202709
0.0195718
0.0190309
0.0186269
0.018356
0.0182267
0.0182533
0.0184449
0.0188273
0.0193827
0.0201031
0.020892
0.157804
0.126429
0.0985173
0.0753591
0.0574798
0.0446795
0.0360846
0.0305305
0.026964
0.0246276
0.0230413
0.021919
0.0210963
0.0204829
0.0200338
0.0197324
0.0195816
0.019595
0.0197765
0.0201709
0.0207704
0.0215503
0.0224828
0.0234384
0.163819
0.130531
0.101453
0.0776721
0.0593518
0.0461428
0.0372028
0.0314234
0.0277563
0.0254062
0.0238563
0.0227943
0.0220416
0.0215019
0.0211302
0.0209139
0.0208621
0.0209757
0.021294
0.0218509
0.022632
0.0236082
0.0247403
0.0258726
0.171727
0.136915
0.106359
0.0814679
0.0622892
0.0483633
0.0388578
0.0326989
0.0288312
0.0264107
0.0248643
0.0238431
0.0231458
0.0226654
0.0223531
0.0221986
0.0222138
0.0223911
0.0228027
0.0234734
0.0243931
0.0255313
0.0268463
0.0281648
0.179343
0.144951
0.113398
0.0871809
0.0667258
0.0516896
0.0413031
0.0345339
0.0303101
0.0277247
0.0261304
0.0251217
0.0244623
0.0240255
0.0237538
0.0236357
0.0236779
0.0238823
0.02433
0.025055
0.0260563
0.0273083
0.0287764
0.0302844
0.182123
0.152669
0.121883
0.0949571
0.073143
0.0566233
0.0449395
0.0372146
0.0323898
0.029485
0.0277555
0.026713
0.0260665
0.0256567
0.0254078
0.0253005
0.0253405
0.025526
0.0259446
0.0266535
0.0276628
0.0289606
0.0305307
0.0322197
0.17616
0.156568
0.129778
0.10398
0.0816183
0.0636904
0.0503742
0.0412395
0.0354256
0.0319345
0.0299092
0.0287454
0.028068
0.0276634
0.0274227
0.0273069
0.0273239
0.0274551
0.027784
0.0283971
0.029322
0.0305735
0.0321654
0.0340069
0.155019
0.151352
0.134974
0.112475
0.0911624
0.0727426
0.0580396
0.0472415
0.0399801
0.0354844
0.0328755
0.031422
0.0306262
0.0301879
0.0299422
0.0298132
0.0297914
0.0298666
0.0300775
0.0305137
0.0312586
0.0323464
0.0338418
0.0357764
0.00470958
0.0148608
0.0299581
0.0448754
0.0579078
0.0716706
0.0185678
0.0369161
0.0556159
0.0704309
0.0822879
0.0934572
0.0228529
0.0481751
0.069259
0.0850586
0.0976486
0.109028
0.0249598
0.0561856
0.0787303
0.095485
0.108986
0.121084
0.0268835
0.0628206
0.0862029
0.103792
0.11817
0.13104
0.0305773
0.068368
0.0924091
0.110741
0.125925
0.1395
0.033628
0.0730701
0.0976502
0.116655
0.132574
0.146763
0.0361143
0.0770214
0.102061
0.121688
0.138278
0.152999
0.0380969
0.0802581
0.105704
0.125917
0.143125
0.158315
0.0396251
0.0827915
0.108609
0.12938
0.14717
0.162787
0.0407414
0.0846194
0.110786
0.132096
0.150445
0.166473
0.0414308
0.0857429
0.112233
0.134069
0.152972
0.16942
0.0416592
0.0861567
0.112939
0.135291
0.154758
0.171663
0.0414218
0.0858475
0.11288
0.135734
0.155797
0.17323
0.0406888
0.0847941
0.112021
0.135363
0.156061
0.174135
0.0394364
0.0829663
0.110308
0.134111
0.155507
0.174383
0.0376328
0.0803226
0.107669
0.131882
0.154046
0.173955
0.0352299
0.0768041
0.104003
0.128537
0.151535
0.1728
0.0321441
0.0723212
0.0991622
0.123873
0.147742
0.170803
0.0281755
0.0667203
0.0929237
0.117582
0.142283
0.167721
0.0250004
0.0596942
0.0849019
0.109178
0.134513
0.163027
0.0226994
0.0507879
0.0743072
0.0977852
0.123313
0.155481
0.0185225
0.0383233
0.059008
0.0814482
0.106688
0.141707
0.00479485
0.0151607
0.0320738
0.0550567
0.0822442
0.115278
0.127855
0.141213
0.136045
0.120747
0.101519
0.0833499
0.06778
0.0555049
0.0466097
0.0406888
0.0370762
0.0350416
0.0339611
0.0334099
0.0331355
0.0330029
0.032958
0.0329946
0.0331084
0.0333655
0.0338558
0.034663
0.0358988
0.0378114
0.122833
0.141733
0.141455
0.134117
0.118086
0.0998662
0.0824448
0.0675099
0.0559308
0.0478226
0.042756
0.0398277
0.0382604
0.0374891
0.0371481
0.0370277
0.037018
0.0370634
0.0371551
0.0373203
0.0376084
0.0381024
0.0389408
0.0406177
0.129285
0.149056
0.156936
0.155892
0.148308
0.133257
0.114403
0.0944573
0.0770243
0.0634508
0.0538777
0.0477792
0.0442967
0.0426556
0.0420452
0.0419409
0.042006
0.0421525
0.0423567
0.0425776
0.0428297
0.0431584
0.0436756
0.0448689
0.138759
0.158906
0.172805
0.179838
0.179564
0.174336
0.162594
0.145687
0.12459
0.10202
0.0821278
0.0676415
0.058146
0.0525168
0.0495336
0.0483193
0.0481523
0.0482818
0.0486062
0.0490558
0.0494788
0.0498732
0.0502695
0.0511324
0.147847
0.167682
0.184351
0.196463
0.203304
0.204677
0.20179
0.194259
0.180736
0.162374
0.139994
0.115906
0.0942006
0.0779762
0.067653
0.0616988
0.0586024
0.0573449
0.0571653
0.0573582
0.0577901
0.0584187
0.0588983
0.0597235
0.156015
0.175242
0.19252
0.206623
0.216824
0.222877
0.224883
0.223344
0.218202
0.208055
0.193122
0.17425
0.152796
0.130707
0.110656
0.0950036
0.0844551
0.0782201
0.0748058
0.0731134
0.0724823
0.0723885
0.0724783
0.0728395
0.163201
0.181724
0.198583
0.212828
0.223902
0.231649
0.236148
0.237597
0.236375
0.232277
0.22432
0.213121
0.199192
0.183182
0.166285
0.14995
0.135457
0.123676
0.11491
0.108768
0.104563
0.101616
0.0993621
0.0980361
0.169447
0.187283
0.20334
0.216946
0.227738
0.235689
0.240981
0.243884
0.244623
0.243493
0.240236
0.234803
0.227616
0.218985
0.209294
0.19901
0.188657
0.178747
0.169649
0.161524
0.154375
0.148124
0.14285
0.13903
0.174817
0.192045
0.207254
0.220037
0.230235
0.237958
0.243482
0.247137
0.249223
0.249957
0.249487
0.247866
0.245146
0.241512
0.237018
0.231755
0.225853
0.219471
0.21278
0.205948
0.199167
0.192711
0.187064
0.182907
0.179377
0.196114
0.210582
0.22264
0.232328
0.239883
0.245644
0.249964
0.253132
0.255349
0.256725
0.257289
0.257085
0.256124
0.254288
0.251603
0.248099
0.243866
0.23904
0.233828
0.228489
0.223373
0.218923
0.215576
0.183194
0.199573
0.213468
0.224994
0.234375
0.241944
0.248065
0.253061
0.257161
0.26049
0.263086
0.264923
0.265958
0.266126
0.265459
0.263829
0.261266
0.257923
0.253931
0.24946
0.244787
0.240294
0.23635
0.233237
0.186333
0.202494
0.215998
0.227194
0.236458
0.244186
0.250731
0.256351
0.261192
0.265296
0.268631
0.271128
0.272711
0.273319
0.272987
0.271655
0.269281
0.266021
0.262021
0.257492
0.252723
0.248106
0.244023
0.240758
0.188854
0.204949
0.218235
0.229273
0.238557
0.246512
0.253452
0.259564
0.264915
0.269483
0.273193
0.275961
0.277698
0.278337
0.277873
0.276304
0.273689
0.270204
0.265995
0.261255
0.256264
0.25141
0.247091
0.243689
0.190821
0.207014
0.220253
0.231274
0.240659
0.248834
0.256065
0.262473
0.268066
0.272782
0.276529
0.27914
0.280549
0.280792
0.279989
0.278126
0.275299
0.271646
0.267314
0.262492
0.257445
0.252519
0.248085
0.24463
0.192301
0.208794
0.222163
0.233294
0.242828
0.251174
0.258546
0.265007
0.270525
0.275021
0.278254
0.280333
0.281281
0.281078
0.279788
0.277354
0.274002
0.269882
0.265172
0.260081
0.25486
0.249807
0.245268
0.241875
0.193377
0.210428
0.224134
0.235515
0.245245
0.253698
0.261027
0.267241
0.272272
0.27596
0.278434
0.279565
0.27937
0.27799
0.275357
0.271704
0.267199
0.262008
0.256319
0.250341
0.244323
0.238577
0.233534
0.229991
0.194154
0.212115
0.226426
0.238233
0.248225
0.256714
0.26377
0.269343
0.273336
0.275709
0.276471
0.27567
0.273449
0.269847
0.265125
0.259461
0.253029
0.246013
0.238595
0.230972
0.223384
0.216178
0.209958
0.205735
0.194778
0.214141
0.229409
0.241874
0.252212
0.260632
0.267089
0.271456
0.273592
0.273571
0.271586
0.267634
0.262125
0.255328
0.247526
0.238996
0.229977
0.220666
0.211224
0.201792
0.192533
0.183716
0.175991
0.170598
0.195467
0.216917
0.233588
0.246972
0.257709
0.265843
0.271157
0.273464
0.272596
0.268967
0.26259
0.254205
0.244269
0.233295
0.221761
0.210053
0.198448
0.187128
0.1762
0.165723
0.155739
0.146307
0.137805
0.131368
0.196573
0.221035
0.239605
0.254116
0.265136
0.272476
0.275705
0.274498
0.269437
0.260329
0.248407
0.234546
0.219644
0.204481
0.189665
0.175602
0.162508
0.15045
0.139412
0.129319
0.120094
0.111632
0.103955
0.0978233
0.198707
0.227318
0.248187
0.263783
0.274559
0.280057
0.279616
0.273793
0.2621
0.246451
0.228332
0.209205
0.19032
0.172564
0.156442
0.142142
0.129617
0.11869
0.109137
0.100741
0.0933444
0.0868334
0.0810721
0.0770088
0.202974
0.236828
0.259971
0.276037
0.285317
0.287205
0.281261
0.268054
0.248944
0.226588
0.203271
0.1809
0.160714
0.143246
0.128495
0.116164
0.105837
0.0970993
0.0896109
0.0831396
0.0775506
0.0727916
0.068883
0.0669474
0.211321
0.250636
0.27508
0.290065
0.295643
0.290972
0.27775
0.255731
0.229326
0.201919
0.176281
0.154051
0.135703
0.120898
0.108935
0.0991107
0.0908566
0.0837728
0.077626
0.0723172
0.0678605
0.0643504
0.0620154
0.0615733
0.226604
0.268902
0.292368
0.303692
0.302019
0.290265
0.266319
0.236159
0.204727
0.175874
0.151696
0.132516
0.117553
0.10567
0.0958775
0.0875239
0.0802555
0.0738838
0.0683814
0.0638407
0.0604071
0.058247
0.0575395
0.0580615
0.005636
0.0263184
0.067453
0.104935
0.124654
0.128783
0.0181317
0.0501814
0.090919
0.12819
0.161385
0.204502
0.0266253
0.0680851
0.107257
0.144762
0.182876
0.227918
0.032847
0.0797091
0.117652
0.155115
0.194284
0.237197
0.0377937
0.0876002
0.124344
0.161143
0.199649
0.240114
0.0416972
0.092904
0.128404
0.164056
0.201201
0.239569
0.0447085
0.0962849
0.130458
0.164659
0.200281
0.236884
0.0469401
0.0981582
0.130919
0.163551
0.197719
0.23308
0.0484793
0.0987941
0.130128
0.161089
0.194121
0.229007
0.0494016
0.0984489
0.128203
0.157593
0.189908
0.22528
0.0497212
0.0971369
0.125344
0.153265
0.185349
0.222356
0.049608
0.0950058
0.121667
0.148229
0.180564
0.220347
0.0489908
0.0921037
0.117254
0.142548
0.175535
0.21904
0.0481145
0.0884453
0.112165
0.136233
0.170159
0.218187
0.04695
0.0841118
0.106439
0.129261
0.164268
0.217608
0.0454748
0.0791681
0.100103
0.12158
0.157634
0.216999
0.0436667
0.0736675
0.093182
0.113128
0.149961
0.215644
0.0414934
0.0676515
0.0856944
0.103861
0.140937
0.213074
0.038893
0.0611463
0.0776596
0.0937961
0.130197
0.208283
0.0357426
0.0541811
0.0690894
0.082945
0.117449
0.200075
0.0318168
0.0467809
0.0599497
0.0712564
0.1023
0.187284
0.0267828
0.0388856
0.049988
0.0585102
0.0842713
0.168138
0.0195835
0.0295072
0.0379603
0.0435923
0.0621306
0.138069
0.00590121
0.0107243
0.0166862
0.0215822
0.0320047
0.0983892
0.252079
0.288939
0.308699
0.312438
0.303272
0.279923
0.246645
0.211296
0.179127
0.152852
0.132614
0.117129
0.104857
0.0946062
0.0857249
0.0779211
0.0710709
0.0652127
0.060476
0.0570119
0.0549376
0.0542731
0.0546924
0.0558935
0.272056
0.304836
0.31854
0.314624
0.295322
0.260397
0.221456
0.185782
0.157076
0.135401
0.118966
0.105864
0.0947785
0.0850939
0.0765672
0.0691276
0.0628452
0.0578379
0.0542178
0.0520414
0.05126
0.0515456
0.0525921
0.054169
0.282216
0.313019
0.320542
0.308554
0.276833
0.235148
0.195865
0.164289
0.140695
0.122867
0.108542
0.0963239
0.0856067
0.0762006
0.0680694
0.0612701
0.0558733
0.0519308
0.0494464
0.0483382
0.0483983
0.0491594
0.0506893
0.0522952
0.285395
0.314151
0.314277
0.293249
0.251857
0.209497
0.174666
0.148625
0.12894
0.113023
0.099366
0.0873758
0.0769062
0.06794
0.0605027
0.0545958
0.0501951
0.04725
0.0456648
0.0452863
0.0457259
0.0469055
0.0485571
0.0501017
0.284303
0.308701
0.301457
0.270689
0.226821
0.188545
0.159504
0.13749
0.119606
0.104188
0.0906399
0.0788544
0.0688422
0.0605992
0.0540512
0.0490838
0.0455746
0.0433981
0.0424101
0.0424306
0.0430912
0.044432
0.0460595
0.0474939
0.280182
0.298383
0.284568
0.247067
0.206135
0.173707
0.148917
0.128701
0.111181
0.0957317
0.0823012
0.0709494
0.0616614
0.054299
0.0486536
0.0445107
0.0416854
0.0400222
0.0393754
0.0395427
0.0403172
0.0416278
0.0431511
0.0444533
0.27461
0.285657
0.266644
0.227129
0.191561
0.163658
0.14079
0.12083
0.103093
0.0876093
0.0745291
0.0638659
0.0554436
0.0489679
0.04412
0.0406238
0.038269
0.0369001
0.0363892
0.0365715
0.0372975
0.0384769
0.0398399
0.0409998
0.268807
0.272919
0.250136
0.213128
0.182048
0.156336
0.133685
0.113282
0.0952721
0.0799733
0.0674963
0.05767
0.0501315
0.0444551
0.0402536
0.0372259
0.0351612
0.0339176
0.0333914
0.0334749
0.0340303
0.034999
0.0361562
0.0371662
0.26351
0.262163
0.237292
0.204046
0.175619
0.150264
0.126942
0.10593
0.087833
0.0729769
0.0612748
0.0523268
0.0456037
0.0405955
0.0368876
0.0341789
0.0322684
0.0310293
0.0303803
0.0302576
0.030558
0.031235
0.0321373
0.0329843
0.259101
0.254179
0.228643
0.19847
0.170858
0.144703
0.120353
0.0988409
0.0809104
0.0667038
0.0558535
0.0477405
0.0417196
0.0372435
0.0338994
0.0313985
0.0295509
0.0282395
0.027396
0.026978
0.0269484
0.02724
0.0278156
0.028468
0.256128
0.248718
0.223746
0.195173
0.166931
0.139329
0.113908
0.0921227
0.0746001
0.061167
0.0511626
0.0437943
0.038353
0.0342896
0.0312094
0.0288412
0.027004
0.0255828
0.0245094
0.0237475
0.0232784
0.0230958
0.0232052
0.0235757
0.25456
0.245687
0.221685
0.193239
0.163374
0.134037
0.107682
0.0858731
0.0689402
0.0563272
0.0471099
0.0403785
0.0354039
0.0316567
0.028769
0.0264882
0.024641
0.0231086
0.021811
0.0206952
0.0197284
0.0189076
0.0183108
0.0181539
0.253904
0.244853
0.221634
0.192104
0.159971
0.128833
0.101759
0.0801567
0.063923
0.0521156
0.0435993
0.0373999
0.0327976
0.0292942
0.026551
0.0243348
0.0224806
0.0208659
0.0193945
0.0179826
0.0165473
0.01501
0.0133493
0.0119052
0.25388
0.245344
0.223042
0.191454
0.15664
0.123768
0.0962079
0.0749919
0.0595055
0.0484515
0.0405435
0.0347837
0.0304797
0.0271689
0.0245415
0.022384
0.0205419
0.0188958
0.017344
0.0157873
0.0141124
0.0121763
0.00978519
0.00639144
0.254777
0.248028
0.225757
0.191109
0.153358
0.118899
0.0910724
0.0703659
0.0556263
0.0452545
0.0378661
0.0324689
0.0284072
0.0252546
0.0227285
0.0206344
0.0188314
0.0172103
0.0156797
0.0141533
0.0125384
0.0107264
0.00856964
0.00571765
0.256405
0.2525
0.229297
0.190913
0.150123
0.114263
0.0863643
0.066241
0.0522168
0.0424503
0.0355017
0.0304036
0.0265408
0.0235212
0.0210871
0.019061
0.0173142
0.0157479
0.0142802
0.0128354
0.0113334
0.00968504
0.00778944
0.00541845
0.258667
0.258803
0.233489
0.190804
0.146947
0.109882
0.0820685
0.062566
0.0492094
0.0399728
0.0333947
0.0285428
0.0248435
0.0219361
0.0195842
0.0176244
0.015938
0.0144338
0.0130367
0.0116783
0.010288
0.00879452
0.00713505
0.00516549
0.261675
0.266998
0.23816
0.190709
0.143821
0.105754
0.0781522
0.0592828
0.0465417
0.0377665
0.0314992
0.0268497
0.0232845
0.0204714
0.0181918
0.016294
0.0146672
0.013226
0.0119009
0.0106297
0.0093509
0.00800897
0.00656799
0.00493705
0.26578
0.276989
0.243267
0.190538
0.140711
0.101846
0.0745677
0.0563364
0.04416
0.0357853
0.0297782
0.0252951
0.0218406
0.0191074
0.0168922
0.0150526
0.0134841
0.0121064
0.0108546
0.00967219
0.00850591
0.00731255
0.0060736
0.00473267
0.271566
0.288898
0.248578
0.190142
0.13755
0.0981106
0.0712669
0.053676
0.0420173
0.0339904
0.0282017
0.0238566
0.0204951
0.0178317
0.0156756
0.0138924
0.0123824
0.0110696
0.00989312
0.00880146
0.00774786
0.0066983
0.00564449
0.00455226
0.280009
0.302788
0.253058
0.189298
0.134244
0.0944923
0.0682008
0.0512538
0.0400722
0.0323493
0.0267459
0.0225174
0.0192367
0.0166367
0.0145375
0.0128105
0.0113606
0.0101147
0.00901566
0.00801581
0.00707357
0.00616115
0.00527533
0.00439574
0.292683
0.318587
0.256679
0.187806
0.130673
0.0909251
0.0653188
0.0490254
0.0382889
0.0308355
0.0253926
0.0212658
0.0180581
0.0155187
0.0134761
0.0118069
0.010419
0.00924224
0.00822212
0.00731408
0.00648031
0.00569688
0.00496202
0.00426273
0.312031
0.335421
0.259349
0.185251
0.12667
0.0873386
0.0625741
0.0469527
0.036638
0.0294284
0.0241283
0.0200938
0.0169552
0.0144759
0.0124914
0.0108821
0.00955844
0.00845257
0.00751201
0.00669457
0.00596497
0.00530121
0.00470036
0.00415188
0.341569
0.346964
0.25959
0.180994
0.122056
0.0836792
0.0599326
0.0450066
0.0350975
0.0281132
0.0229441
0.0189966
0.0159263
0.0135082
0.0115839
0.0100368
0.00877932
0.00774534
0.00688405
0.00615481
0.0055238
0.00496934
0.00448561
0.00406105
0.00515508
0.0311102
0.0693753
0.11646
0.153709
0.191496
0.0189017
0.0646537
0.107701
0.155968
0.215434
0.322122
0.0275816
0.0825701
0.129661
0.181681
0.246854
0.336766
0.0346536
0.0948257
0.144584
0.198456
0.261686
0.332543
0.040827
0.104236
0.155548
0.209521
0.268187
0.323168
0.0460597
0.111765
0.163786
0.216671
0.26985
0.312478
0.0503702
0.117813
0.169932
0.221059
0.268876
0.301765
0.0538036
0.122574
0.17437
0.223459
0.266431
0.291692
0.0564146
0.126155
0.177365
0.224415
0.263202
0.282732
0.0582575
0.128627
0.179117
0.224332
0.259683
0.275093
0.0593815
0.130046
0.179781
0.223482
0.25624
0.268875
0.0598287
0.130456
0.179475
0.222062
0.253119
0.264128
0.0596329
0.129889
0.178279
0.220192
0.250464
0.260877
0.0588194
0.128362
0.176233
0.217921
0.248331
0.259143
0.0573749
0.125879
0.173331
0.215226
0.246683
0.258916
0.0552588
0.122426
0.16952
0.212005
0.245385
0.260169
0.0524352
0.117962
0.164695
0.208078
0.244188
0.262925
0.0488657
0.112417
0.158694
0.203163
0.242674
0.267144
0.0445072
0.10567
0.151273
0.196811
0.240242
0.272702
0.0393177
0.0975196
0.14207
0.188379
0.235989
0.279232
0.033269
0.0875757
0.130497
0.176938
0.228598
0.285631
0.0263742
0.0749533
0.115421
0.161022
0.215581
0.288992
0.0179599
0.057041
0.0940289
0.137919
0.192608
0.277598
0.00452398
0.0256776
0.0581022
0.102842
0.154597
0.168341
0.380849
0.351164
0.254796
0.174569
0.116769
0.0799429
0.0573819
0.0431701
0.033653
0.0268805
0.0218351
0.0179724
0.0149709
0.0126162
0.0107543
0.00927121
0.00808112
0.00711921
0.00633586
0.00569129
0.0051521
0.00469565
0.00431226
0.00398763
0.40377
0.339342
0.244465
0.166212
0.11097
0.076194
0.0549336
0.0414384
0.032298
0.0257262
0.0207995
0.017021
0.0140898
0.0118003
0.0100026
0.00858473
0.00746228
0.00657163
0.00586389
0.00529937
0.00484411
0.00447363
0.00417435
0.00392886
0.385983
0.320134
0.230943
0.156803
0.105001
0.0725456
0.0526165
0.0398155
0.0310316
0.0246497
0.0198381
0.0161438
0.0132842
0.0110613
0.00932852
0.00797579
0.00692019
0.00609897
0.00546347
0.00497331
0.00459315
0.00429625
0.00406584
0.00388217
0.363034
0.299624
0.216476
0.147249
0.0992087
0.0691091
0.0504606
0.0383091
0.0298563
0.0236531
0.0189531
0.0153427
0.0125553
0.0103991
0.00873081
0.00744206
0.00645132
0.0056966
0.00512894
0.0047065
0.00439199
0.0041565
0.00398119
0.00384535
0.34033
0.279783
0.202395
0.138181
0.0938357
0.06596
0.0484872
0.0369263
0.0287759
0.0227394
0.0181472
0.0146197
0.0119039
0.00981351
0.00820783
0.00698057
0.00605155
0.00535931
0.00485403
0.00449187
0.00423342
0.00404802
0.00391571
0.00381666
0.31983
0.261662
0.189471
0.129964
0.0890135
0.0631364
0.0467073
0.0356722
0.0277939
0.0219117
0.0174229
0.0139766
0.0113306
0.00930345
0.00775733
0.00658791
0.00571639
0.00508153
0.00463222
0.00432231
0.00411053
0.00396517
0.00386582
0.0037949
0.30189
0.245705
0.17806
0.122756
0.0847912
0.0606494
0.0451239
0.0345496
0.0269132
0.0211729
0.0167826
0.0134142
0.0108348
0.00886727
0.00737649
0.00626023
0.00544099
0.00485749
0.00445691
0.00419087
0.00401683
0.00390289
0.00382885
0.00377903
0.286517
0.232033
0.168274
0.11659
0.0811683
0.0584936
0.0437351
0.0335582
0.0261357
0.0205253
0.0162276
0.0129328
0.0104154
0.00850259
0.00706192
0.00599324
0.00522025
0.00468133
0.00432186
0.00409147
0.00394705
0.00385715
0.00380209
0.00376777
0.273674
0.220628
0.160105
0.111439
0.0781188
0.0566549
0.0425353
0.0326968
0.0254624
0.0199703
0.0157583
0.0125313
0.0100704
0.00820654
0.00680995
0.00578256
0.00504912
0.00454751
0.00422134
0.00401881
0.0038968
0.00382469
0.00378345
0.00376016
0.263292
0.211414
0.153487
0.107245
0.0756054
0.0551149
0.0415176
0.0319634
0.024893
0.0195077
0.0153739
0.0122082
0.00979751
0.00797612
0.00661702
0.00562409
0.004923
0.00445109
0.00415051
0.00396856
0.00386259
0.00380299
0.0037713
0.00375537
0.25528
0.204293
0.148331
0.103938
0.0735878
0.0538542
0.0406735
0.0313546
0.0244262
0.0191362
0.0150727
0.0119614
0.00959409
0.00780835
0.00647979
0.00551416
0.0048379
0.00438795
0.00410545
0.00393734
0.00384164
0.00379002
0.00376454
0.00375278
0.249554
0.199164
0.144547
0.101453
0.072027
0.0528534
0.0399941
0.0308661
0.0240592
0.0188537
0.0148525
0.0117885
0.00945754
0.00770046
0.00639535
0.00544965
0.00479058
0.00435487
0.0040833
0.00392285
0.0038323
0.00378459
0.00376169
0.00375188
0.246054
0.195947
0.142055
0.0997307
0.0708878
0.0520941
0.0394698
0.0304925
0.0237884
0.018657
0.0147105
0.0116867
0.00938525
0.00764993
0.00636126
0.00542813
0.00477865
0.00434944
0.0040821
0.00392379
0.00383392
0.00378581
0.00376231
0.003752
0.244775
0.19459
0.140793
0.0987209
0.0701385
0.0515582
0.0390903
0.0302271
0.0236089
0.0185421
0.0146431
0.0116532
0.00937469
0.00765405
0.00637385
0.00544492
0.00479742
0.00436916
0.00410016
0.00393884
0.00384546
0.00379331
0.00376618
0.00375305
0.245719
0.195077
0.14072
0.0983839
0.0697511
0.0512282
0.0388445
0.0300624
0.0235147
0.0185043
0.0146461
0.0116825
0.0094194
0.0077062
0.00642899
0.00550074
0.00484985
0.00441439
0.00413719
0.00396763
0.00386648
0.00380724
0.00377359
0.00375535
0.24901
0.197429
0.141808
0.0986883
0.0697009
0.0510868
0.0387198
0.0299893
0.0234988
0.0185367
0.0147128
0.0117708
0.00951878
0.00781032
0.00653187
0.00559589
0.00493333
0.00448425
0.00419303
0.00401028
0.00389725
0.00382747
0.00378484
0.00375922
0.254783
0.201696
0.144045
0.0996056
0.0699584
0.0511123
0.0387024
0.0299972
0.023553
0.0186342
0.0148414
0.0119176
0.00967413
0.00796485
0.00667785
0.00572796
0.00504777
0.00457908
0.00426831
0.00406759
0.00393863
0.0038549
0.00380043
0.00376497
0.26324
0.207953
0.147414
0.101102
0.0704919
0.0512799
0.0387727
0.0300726
0.0236674
0.0187897
0.0150268
0.0121196
0.00988015
0.00816521
0.00686517
0.00589653
0.00519343
0.00469969
0.00436416
0.00414076
0.00399175
0.00389052
0.00382119
0.00377312
0.274596
0.216272
0.151876
0.103128
0.0712577
0.0515581
0.0389094
0.0301996
0.0238299
0.0189928
0.0152598
0.0123684
0.0101316
0.00840876
0.00709257
0.00610132
0.00537085
0.00484728
0.00448211
0.00423137
0.00405806
0.00393557
0.00384811
0.00378429
0.289062
0.226689
0.157332
0.105597
0.0721926
0.0519057
0.0390853
0.0303597
0.0240265
0.0192329
0.0155323
0.012658
0.0104243
0.00869272
0.00735855
0.00634195
0.00558067
0.00502324
0.004624
0.00434135
0.00413934
0.00399155
0.00388232
0.00379917
0.306654
0.239115
0.163549
0.108355
0.0732013
0.0522671
0.0392671
0.0305309
0.0242416
0.019498
0.015835
0.0129816
0.0107531
0.00901364
0.00766108
0.0066177
0.00582331
0.00522889
0.00479174
0.00447284
0.00423761
0.00406014
0.00392504
0.00381849
0.325997
0.25314
0.170034
0.111124
0.0741395
0.0525679
0.0394142
0.0306894
0.0244586
0.0197756
0.0161582
0.0133315
0.0111122
0.00936736
0.00799748
0.00692726
0.00609868
0.00546525
0.00498714
0.00462808
0.00435519
0.00414338
0.00397738
0.00384285
0.342467
0.267812
0.175831
0.113436
0.0747984
0.0527122
0.0394814
0.0308112
0.0246616
0.0200534
0.0164921
0.0136999
0.0114956
0.0097493
0.00836459
0.00726884
0.00640634
0.00573305
0.00521195
0.00480949
0.00449463
0.00424322
0.00404012
0.00387247
0.327163
0.278172
0.179202
0.114562
0.074899
0.0526255
0.0394394
0.0308764
0.0248362
0.0203202
0.0168272
0.0140789
0.0118968
0.0101544
0.00875879
0.00764023
0.00674542
0.00603267
0.00546755
0.00501905
0.00465802
0.00436146
0.0041149
0.00390787
)
;

boundaryField
{
    rotor
    {
        type            kqRWallFunction;
        value           nonuniform List<scalar> 
144
(
0.00636712
0.0094843
0.0135685
0.0193581
0.0349497
0.114922
0.00636712
0.0201272
0.0269719
0.0315486
0.0350901
0.0379783
0.0404194
0.0425006
0.0442579
0.0457108
0.046877
0.0477791
0.0483314
0.0483849
0.0479911
0.0470577
0.0455668
0.0434601
0.0406501
0.037009
0.0323481
0.0263616
0.0179079
0.00604181
0.00604181
0.0291388
0.0670075
0.105113
0.127619
0.118299
0.00470958
0.0148608
0.0299581
0.0448754
0.0579078
0.0716706
0.00470958
0.0185678
0.0228529
0.0249598
0.0268835
0.0305773
0.033628
0.0361143
0.0380969
0.0396251
0.0407414
0.0414308
0.0416592
0.0414218
0.0406888
0.0394364
0.0376328
0.0352299
0.0321441
0.0281755
0.0250004
0.0226994
0.0185225
0.00479485
0.00479485
0.0151607
0.0320738
0.0550567
0.0822442
0.115278
0.005636
0.0263184
0.067453
0.104935
0.124654
0.128783
0.005636
0.0181317
0.0266253
0.032847
0.0377937
0.0416972
0.0447085
0.0469401
0.0484793
0.0494016
0.0497212
0.049608
0.0489908
0.0481145
0.04695
0.0454748
0.0436667
0.0414934
0.038893
0.0357426
0.0318168
0.0267828
0.0195835
0.00590121
0.00590121
0.0107243
0.0166862
0.0215822
0.0320047
0.0983892
0.00515508
0.0311102
0.0693753
0.11646
0.153709
0.191496
0.00515508
0.0189017
0.0275816
0.0346536
0.040827
0.0460597
0.0503702
0.0538036
0.0564146
0.0582575
0.0593815
0.0598287
0.0596329
0.0588194
0.0573749
0.0552588
0.0524352
0.0488657
0.0445072
0.0393177
0.033269
0.0263742
0.0179599
0.00452398
0.00452398
0.0256776
0.0581022