/*--------------------------------*- C++ -*----------------------------------*\
  =========                 |
  \\      /  F ield         | OpenFOAM: The Open Source CFD Toolbox
   \\    /   O peration     | Website:  https://openfoam.org
    \\  /    A nd           | Version:  11
     \\/     M anipulation  |
\*---------------------------------------------------------------------------*/
FoamFile
{
    format      ascii;
    class       surfaceScalarField;
    location    "0.12";
    object      meshPhi;
}
// * * * * * * * * * * * * * * * * * * * * * * * * * * * * * * * * * * * * * //

dimensions      [0 3 -1 0 0 0 0];

internalField   nonuniform List<scalar> 
5640
(
1.36926e-16
9.81747e-07
2.42006e-16
1.37445e-06
3.76888e-16
1.76715e-06
-1.33944e-15
2.15984e-06
-3.68182e-15
2.55254e-06
2.94524e-06
5.95102e-15
1.79154e-18
9.81747e-07
-3.88901e-16
1.37445e-06
-2.60424e-15
1.76715e-06
1.94343e-15
2.15984e-06
8.06589e-15
2.55254e-06
2.94524e-06
-9.03016e-15
-1.16502e-16
9.81747e-07
1.86288e-16
1.37445e-06
-1.56244e-15
1.76715e-06
-4.21269e-15
2.15984e-06
-7.49869e-15
2.55254e-06
2.94524e-06
7.71919e-16
8.6895e-17
9.81747e-07
-1.01985e-16
1.37445e-06
2.69305e-15
1.76715e-06
7.44266e-15
2.15984e-06
3.25953e-15
2.55254e-06
2.94524e-06
-2.79836e-15
-4.84294e-17
9.81747e-07
3.94662e-17
1.37445e-06
1.94207e-16
1.76715e-06
-1.80627e-15
2.15984e-06
-4.20881e-15
2.55254e-06
2.94524e-06
5.01304e-15
-1.80146e-16
9.81747e-07
4.24009e-18
1.37445e-06
-1.84788e-15
1.76715e-06
-3.88626e-15
2.15984e-06
3.15684e-15
2.55254e-06
2.94524e-06
4.97733e-16
2.53939e-16
9.81747e-07
2.55339e-16
1.37445e-06
2.06588e-15
1.76715e-06
4.50389e-15
2.15984e-06
-2.31022e-15
2.55254e-06
2.94524e-06
5.40646e-16
2.16178e-17
9.81747e-07
-3.21797e-16
1.37445e-06
-1.14894e-15
1.76715e-06
-5.28586e-15
2.15984e-06
-3.7712e-16
2.55254e-06
2.94524e-06
-5.64023e-15
-1.43434e-16
9.81747e-07
1.66278e-16
1.37445e-06
4.19109e-15
1.76715e-06
6.34934e-15
2.15984e-06
-8.06022e-16
2.55254e-06
2.94524e-06
8.39023e-16
-6.885e-17
9.81747e-07
-9.21848e-17
1.37445e-06
-2.76946e-15
1.76715e-06
-3.68935e-16
2.15984e-06
-1.45113e-15
2.55254e-06
2.94524e-06
-1.77099e-16
1.66304e-16
9.81747e-07
-8.87771e-17
1.37445e-06
5.69516e-16
1.76715e-06
-2.1037e-15
2.15984e-06
9.6597e-15
2.55254e-06
2.94524e-06
5.2898e-15
-1.7783e-16
9.81747e-07
-2.06105e-17
1.37445e-06
-3.45554e-16
1.76715e-06
-4.17282e-15
2.15984e-06
-2.62279e-15
2.55254e-06
2.94524e-06
5.36921e-15
1.77765e-16
9.81747e-07
2.04157e-17
1.37445e-06
3.45286e-16
1.76715e-06
4.17239e-15
2.15984e-06
2.62217e-15
2.55254e-06
2.94524e-06
-5.36975e-15
-1.6635e-16
9.81747e-07
8.86285e-17
1.37445e-06
-5.69784e-16
1.76715e-06
2.10334e-15
2.15984e-06
-9.66025e-15
2.55254e-06
2.94524e-06
-5.29072e-15
6.87823e-17
9.81747e-07
9.19536e-17
1.37445e-06
2.76929e-15
1.76715e-06
3.68568e-16
2.15984e-06
1.4506e-15
2.55254e-06
2.94524e-06
1.76109e-16
1.43382e-16
9.81747e-07
-1.66548e-16
1.37445e-06
-4.1912e-15
1.76715e-06
-6.34964e-15
2.15984e-06
8.05506e-16
2.55254e-06
2.94524e-06
-8.39625e-16
-2.17064e-17
9.81747e-07
3.21582e-16
1.37445e-06
1.14882e-15
1.76715e-06
5.28542e-15
2.15984e-06
3.76572e-16
2.55254e-06
2.94524e-06
5.63936e-15
-2.54048e-16
9.81747e-07
-2.55508e-16
1.37445e-06
-2.0661e-15
1.76715e-06
-4.50433e-15
2.15984e-06
2.3097e-15
2.55254e-06
2.94524e-06
-5.41203e-16
1.8007e-16
9.81747e-07
-4.40867e-18
1.37445e-06
1.84757e-15
1.76715e-06
3.88607e-15
2.15984e-06
-3.15719e-15
2.55254e-06
2.94524e-06
-4.98597e-16
4.833e-17
9.81747e-07
-3.96164e-17
1.37445e-06
-1.9447e-16
1.76715e-06
1.806e-15
2.15984e-06
4.20833e-15
2.55254e-06
2.94524e-06
-5.01369e-15
-8.69918e-17
9.81747e-07
1.01853e-16
1.37445e-06
-2.69324e-15
1.76715e-06
-7.44293e-15
2.15984e-06
-3.26006e-15
2.55254e-06
2.94524e-06
2.79754e-15
1.16413e-16
9.81747e-07
-1.86444e-16
1.37445e-06
1.56234e-15
1.76715e-06
4.21236e-15
2.15984e-06
7.49812e-15
2.55254e-06
2.94524e-06
-7.72659e-16
-1.90584e-18
9.81747e-07
3.88723e-16
1.37445e-06
2.60412e-15
1.76715e-06
-1.94379e-15
2.15984e-06
-8.06639e-15
2.55254e-06
2.94524e-06
9.02962e-15
-1.36995e-16
-2.42179e-16
-3.77105e-16
1.33912e-15
3.68131e-15
-5.95158e-15
-1.13364e-14
4.53785e-06
-4.53785e-06
-4.81697e-16
5.23599e-06
-5.23599e-06
-5.35775e-15
5.93412e-06
-5.93412e-06
-1.13042e-14
6.63225e-06
-6.63225e-06
4.86789e-15
7.33038e-06
-7.33038e-06
-1.11069e-15
8.02851e-06
-8.02851e-06
-8.15911e-15
8.72664e-06
-8.72664e-06
1.30417e-14
9.42478e-06
-9.42478e-06
5.94684e-15
1.01229e-05
-1.01229e-05
-1.99903e-15
1.0821e-05
-1.0821e-05
2.43826e-14
1.15192e-05
-1.15192e-05
1.61874e-14
1.22173e-05
-1.22173e-05
-3.27894e-14
1.29154e-05
-1.29154e-05
-3.05663e-15
1.36136e-05
-1.36136e-05
-1.44464e-14
1.43117e-05
-1.43117e-05
-2.69057e-14
1.50098e-05
-1.50098e-05
7.73687e-15
1.5708e-05
-1.5708e-05
-4.44275e-15
1.64061e-05
-1.64061e-05
-1.80052e-14
1.71042e-05
-1.71042e-05
2.18154e-14
1.78024e-05
-1.78024e-05
8.20739e-15
1.85005e-05
-1.85005e-05
-6.09215e-15
1.91986e-05
-1.91986e-05
3.89125e-14
1.98967e-05
-1.98967e-05
2.05949e-05
-2.05949e-05
9.39855e-15
4.53785e-06
5.19886e-16
5.23599e-06
7.52771e-15
5.93412e-06
-4.41302e-15
6.63225e-06
3.78212e-15
7.33038e-06
1.33836e-14
8.02851e-06
-2.11167e-15
8.72664e-06
8.52752e-15
9.42478e-06
-1.00303e-14
1.01229e-05
1.86351e-15
1.0821e-05
-2.02053e-14
1.15192e-05
-7.01416e-15
1.22173e-05
7.5078e-15
1.29154e-05
2.36045e-14
1.36136e-05
-2.04491e-15
1.43117e-05
1.48283e-14
1.50098e-05
-1.38818e-14
1.5708e-05
2.38704e-15
1.64061e-05
2.04069e-14
1.71042e-05
-7.02524e-15
1.78024e-05
1.20613e-14
1.85005e-05
-2.59478e-14
1.91986e-05
1.84038e-15
1.98967e-05
2.05949e-05
-8.67619e-15
4.53785e-06
1.22917e-14
5.23599e-06
1.88238e-15
5.93412e-06
8.90119e-15
6.63225e-06
-5.10986e-15
7.33038e-06
-2.19919e-14
8.02851e-06
1.22634e-14
8.72664e-06
-5.37562e-15
9.42478e-06
4.45538e-15
1.01229e-05
-1.43076e-14
1.0821e-05
-7.32754e-15
1.15192e-05
7.03714e-15
1.22173e-05
2.39921e-14
1.29154e-05
-7.55783e-15
1.36136e-05
9.79649e-15
1.43117e-05
-1.62393e-14
1.50098e-05
4.02909e-14
1.5708e-05
1.44401e-14
1.64061e-05
-1.37102e-14
1.71042e-05
-7.90153e-15
1.78024e-05
-3.92558e-14
1.85005e-05
4.27432e-14
1.91986e-05
-8.85631e-15
1.98967e-05
2.05949e-05
5.98548e-15
4.53785e-06
2.18413e-16
5.23599e-06
-6.43607e-15
5.93412e-06
6.06332e-15
6.63225e-06
-2.09395e-15
7.33038e-06
1.61751e-14
8.02851e-06
-1.88318e-14
8.72664e-06
-2.35287e-15
9.42478e-06
9.171e-15
1.01229e-05
-4.71235e-15
1.0821e-05
2.16244e-14
1.15192e-05
-2.96468e-14
1.22173e-05
-9.29185e-15
1.29154e-05
-1.89116e-14
1.36136e-05
4.46182e-15
1.43117e-05
3.01522e-14
1.50098e-05
-2.62214e-14
1.5708e-05
4.31201e-16
1.64061e-05
-2.11789e-14
1.71042e-05
1.87106e-14
1.78024e-05
-3.92832e-15
1.85005e-05
-2.91683e-14
1.91986e-05
1.52266e-14
1.98967e-05
2.05949e-05
6.71444e-15
4.53785e-06
-7.30722e-15
5.23599e-06
1.11004e-14
5.93412e-06
-4.2419e-15
6.63225e-06
1.51011e-14
7.33038e-06
-5.21e-15
8.02851e-06
1.70121e-14
8.72664e-06
-3.94193e-15
9.42478e-06
-2.95927e-16
1.01229e-05
6.60833e-15
1.0821e-05
1.37023e-14
1.15192e-05
1.01826e-14
1.22173e-05
1.82137e-14
1.29154e-05
1.43644e-14
1.36136e-05
2.3336e-14
1.43117e-05
-2.53493e-14
1.50098e-05
2.90688e-14
1.5708e-05
-7.83007e-15
1.64061e-05
3.54112e-14
1.71042e-05
-4.51787e-15
1.78024e-05
4.23622e-14
1.85005e-05
-5.92706e-16
1.91986e-05
-8.73551e-15
1.98967e-05
2.05949e-05
-4.63063e-15
4.53785e-06
5.79694e-15
5.23599e-06
-1.61509e-14
5.93412e-06
-5.97515e-15
6.63225e-06
-8.55583e-15
7.33038e-06
4.22272e-15
8.02851e-06
-8.18894e-15
8.72664e-06
6.99821e-15
9.42478e-06
-2.42311e-14
1.01229e-05
-7.77202e-15
1.0821e-05
-2.27673e-14
1.15192e-05
8.3465e-15
1.22173e-05
-7.40769e-15
1.29154e-05
2.82631e-14
1.36136e-05
-4.57137e-14
1.43117e-05
-8.22816e-15
1.50098e-05
-2.82293e-14
1.5708e-05
-2.34327e-15
1.64061e-05
-6.94847e-15
1.71042e-05
2.21452e-14
1.78024e-05
-3.41134e-14
1.85005e-05
-3.74789e-15
1.91986e-05
-3.23525e-14
1.98967e-05
2.05949e-05
-8.92535e-15
4.53785e-06
-2.28939e-15
5.23599e-06
-2.22478e-15
5.93412e-06
6.61567e-15
6.63225e-06
-3.38859e-15
7.33038e-06
-3.90896e-15
8.02851e-06
-6.42009e-15
8.72664e-06
-7.16052e-15
9.42478e-06
6.80789e-15
1.01229e-05
6.98178e-15
1.0821e-05
-9.06701e-15
1.15192e-05
6.75636e-15
1.22173e-05
-2.88916e-14
1.29154e-05
-1.22371e-14
1.36136e-05
4.80273e-15
1.43117e-05
2.50218e-14
1.50098e-05
3.85624e-15
1.5708e-05
3.60114e-15
1.64061e-05
-2.04877e-14
1.71042e-05
-2.17674e-14
1.78024e-05
3.46172e-15
1.85005e-05
2.90352e-14
1.91986e-05
-1.66683e-15
1.98967e-05
2.05949e-05
6.21538e-15
4.53785e-06
-3.87996e-15
5.23599e-06
1.54212e-14
5.93412e-06
-7.06612e-15
6.63225e-06
-2.21114e-15
7.33038e-06
1.42845e-15
8.02851e-06
-5.49514e-15
8.72664e-06
1.32243e-14
9.42478e-06
6.04353e-15
1.01229e-05
-1.74536e-14
1.0821e-05
2.08836e-14
1.15192e-05
-2.14479e-14
1.22173e-05
1.91301e-14
1.29154e-05
-7.32077e-15
1.36136e-05
3.84841e-14
1.43117e-05
-1.2927e-14
1.50098e-05
-1.88768e-15
1.5708e-05
5.71381e-15
1.64061e-05
-7.59391e-15
1.71042e-05
2.7653e-14
1.78024e-05
1.40898e-14
1.85005e-05
-5.31499e-14
1.91986e-05
3.90801e-14
1.98967e-05
2.05949e-05
-1.49894e-15
4.53785e-06
1.08964e-14
5.23599e-06
-6.59968e-15
5.93412e-06
7.26438e-15
6.63225e-06
6.17434e-15
7.33038e-06
2.48753e-15
8.02851e-06
-9.65592e-16
8.72664e-06
-4.36664e-15
9.42478e-06
-8.9029e-15
1.01229e-05
1.38613e-14
1.0821e-05
1.06864e-14
1.15192e-05
6.24856e-15
1.22173e-05
-1.30317e-16
1.29154e-05
-3.44255e-15
1.36136e-05
-1.10502e-14
1.43117e-05
-1.7767e-14
1.50098e-05
1.7676e-14
1.5708e-05
9.95012e-15
1.64061e-05
3.32346e-15
1.71042e-05
-3.29749e-14
1.78024e-05
-1.04297e-14
1.85005e-05
3.00583e-14
1.91986e-05
-6.00012e-14
1.98967e-05
2.05949e-05
5.1697e-15
4.53785e-06
-7.45594e-15
5.23599e-06
-7.56996e-16
5.93412e-06
6.8385e-15
6.63225e-06
-9.97537e-15
7.33038e-06
-1.66497e-15
8.02851e-06
9.21769e-15
8.72664e-06
-1.34604e-14
9.42478e-06
2.32195e-14
1.01229e-05
1.04703e-14
1.0821e-05
-1.72749e-14
1.15192e-05
-3.02798e-15
1.22173e-05
1.13955e-14
1.29154e-05
-1.98213e-14
1.36136e-05
-4.68123e-15
1.43117e-05
5.03028e-14
1.50098e-05
-2.40493e-14
1.5708e-05
-6.65986e-15
1.64061e-05
1.4257e-14
1.71042e-05
1.6465e-15
1.78024e-05
-6.81571e-15
1.85005e-05
1.44354e-14
1.91986e-05
5.07542e-14
1.98967e-05
2.05949e-05
-6.19769e-15
4.53785e-06
2.81483e-17
5.23599e-06
1.15109e-14
5.93412e-06
-2.06271e-14
6.63225e-06
5.36559e-15
7.33038e-06
1.22018e-15
8.02851e-06
-4.94015e-17
8.72664e-06
1.23914e-14
9.42478e-06
-1.32276e-14
1.01229e-05
-1.8897e-14
1.0821e-05
-4.96669e-15
1.15192e-05
-7.15618e-15
1.22173e-05
-1.489e-14
1.29154e-05
3.53358e-14
1.36136e-05
-4.93471e-18
1.43117e-05
-4.31407e-14
1.50098e-05
1.35593e-14
1.5708e-05
-2.82602e-14
1.64061e-05
2.45111e-15
1.71042e-05
-1.02468e-14
1.78024e-05
2.37971e-14
1.85005e-05
1.38643e-14
1.91986e-05
-4.5567e-14
1.98967e-05
2.05949e-05
-1.90721e-15
4.53785e-06
1.12989e-15
5.23599e-06
-2.16628e-14
5.93412e-06
9.62295e-15
6.63225e-06
1.51358e-14
7.33038e-06
-1.40665e-14
8.02851e-06
8.09133e-15
8.72664e-06
-2.69616e-14
9.42478e-06
-1.96772e-15
1.01229e-05
2.97142e-14
1.0821e-05
-1.17475e-14
1.15192e-05
1.98642e-14
1.22173e-05
-2.74492e-14
1.29154e-05
-2.06193e-14
1.36136e-05
1.60347e-14
1.43117e-05
-4.61755e-15
1.50098e-05
4.6836e-15
1.5708e-05
4.7962e-14
1.64061e-05
-1.37501e-14
1.71042e-05
3.23653e-14
1.78024e-05
-3.5193e-14
1.85005e-05
-2.49106e-14
1.91986e-05
7.19091e-14
1.98967e-05
2.05949e-05
1.90629e-15
4.53785e-06
-1.13144e-15
5.23599e-06
2.16613e-14
5.93412e-06
-9.62507e-15
6.63225e-06
-1.51382e-14
7.33038e-06
1.40646e-14
8.02851e-06
-8.09423e-15
8.72664e-06
2.69576e-14
9.42478e-06
1.96323e-15
1.01229e-05
-2.97196e-14
1.0821e-05
1.17436e-14
1.15192e-05
-1.98681e-14
1.22173e-05
2.744e-14
1.29154e-05
2.06109e-14
1.36136e-05
-1.60438e-14
1.43117e-05
4.61222e-15
1.50098e-05
-4.69825e-15
1.5708e-05
-4.79714e-14
1.64061e-05
1.37317e-14
1.71042e-05
-3.23769e-14
1.78024e-05
3.51813e-14
1.85005e-05
2.48988e-14
1.91986e-05
-7.1918e-14
1.98967e-05
2.05949e-05
6.19677e-15
4.53785e-06
-2.89988e-17
5.23599e-06
-1.15122e-14
5.93412e-06
2.06248e-14
6.63225e-06
-5.36754e-15
7.33038e-06
-1.22264e-15
8.02851e-06
4.50789e-17
8.72664e-06
-1.23954e-14
9.42478e-06
1.3224e-14
1.01229e-05
1.88911e-14
1.0821e-05
4.96257e-15
1.15192e-05
7.15043e-15
1.22173e-05
1.48839e-14
1.29154e-05
-3.5344e-14
1.36136e-05
-1.2081e-18
1.43117e-05
4.31341e-14
1.50098e-05
-1.35671e-14
1.5708e-05
2.8251e-14
1.64061e-05
-2.46185e-15
1.71042e-05
1.02322e-14
1.78024e-05
-2.38139e-14
1.85005e-05
-1.38838e-14
1.91986e-05
4.55611e-14
1.98967e-05
2.05949e-05
-5.17046e-15
4.53785e-06
7.45495e-15
5.23599e-06
7.56184e-16
5.93412e-06
-6.8412e-15
6.63225e-06
9.97384e-15
7.33038e-06
1.66337e-15
8.02851e-06
-9.22023e-15
8.72664e-06
1.34577e-14
9.42478e-06
-2.32234e-14
1.01229e-05
-1.04739e-14
1.0821e-05
1.72696e-14
1.15192e-05
3.02474e-15
1.22173e-05
-1.14012e-14
1.29154e-05
1.98134e-14
1.36136e-05
4.67617e-15
1.43117e-05
-5.03095e-14
1.50098e-05
2.40402e-14
1.5708e-05
6.65348e-15
1.64061e-05
-1.42658e-14
1.71042e-05
-1.65725e-15
1.78024e-05
6.80174e-15
1.85005e-05
-1.44506e-14
1.91986e-05
-5.07586e-14
1.98967e-05
2.05949e-05
1.49831e-15
4.53785e-06
-1.08976e-14
5.23599e-06
6.59901e-15
5.93412e-06
-7.26615e-15
6.63225e-06
-6.17574e-15
7.33038e-06
-2.48996e-15
8.02851e-06
9.63085e-16
8.72664e-06
4.36378e-15
9.42478e-06
8.8979e-15
1.01229e-05
-1.38651e-14
1.0821e-05
-1.06933e-14
1.15192e-05
-6.254e-15
1.22173e-05
1.22618e-16
1.29154e-05
3.43593e-15
1.36136e-05
1.10414e-14
1.43117e-05
1.77616e-14
1.50098e-05
-1.76861e-14
1.5708e-05
-9.95984e-15
1.64061e-05
-3.33262e-15
1.71042e-05
3.29613e-14
1.78024e-05
1.04187e-14
1.85005e-05
-3.00773e-14
1.91986e-05
5.99872e-14
1.98967e-05
2.05949e-05
-6.21614e-15
4.53785e-06
3.87829e-15
5.23599e-06
-1.54231e-14
5.93412e-06
7.06367e-15
6.63225e-06
2.20967e-15
7.33038e-06
-1.43038e-15
8.02851e-06
5.49131e-15
8.72664e-06
-1.32276e-14
9.42478e-06
-6.04846e-15
1.01229e-05
1.74487e-14
1.0821e-05
-2.08901e-14
1.15192e-05
2.14412e-14
1.22173e-05
-1.9138e-14
1.29154e-05
7.31342e-15
1.36136e-05
-3.84886e-14
1.43117e-05
1.29194e-14
1.50098e-05
1.87896e-15
1.5708e-05
-5.72153e-15
1.64061e-05
7.58144e-15
1.71042e-05
-2.7666e-14
1.78024e-05
-1.41108e-14
1.85005e-05
5.31346e-14
1.91986e-05
-3.90967e-14
1.98967e-05
2.05949e-05
8.92459e-15
4.53785e-06
2.28809e-15
5.23599e-06
2.22333e-15
5.93412e-06
-6.61731e-15
6.63225e-06
3.38679e-15
7.33038e-06
3.90649e-15
8.02851e-06
6.41665e-15
8.72664e-06
7.15668e-15
9.42478e-06
-6.81187e-15
1.01229e-05
-6.98589e-15
1.0821e-05
9.06131e-15
1.15192e-05
-6.76424e-15
1.22173e-05
2.88843e-14
1.29154e-05
1.22306e-14
1.36136e-05
-4.80578e-15
1.43117e-05
-2.50277e-14
1.50098e-05
-3.86707e-15
1.5708e-05
-3.61173e-15
1.64061e-05
2.04752e-14
1.71042e-05
2.17496e-14
1.78024e-05
-3.47503e-15
1.85005e-05
-2.90433e-14
1.91986e-05
1.65458e-15
1.98967e-05
2.05949e-05
4.62975e-15
4.53785e-06
-5.79816e-15
5.23599e-06
1.61497e-14
5.93412e-06
5.9736e-15
6.63225e-06
8.55402e-15
7.33038e-06
-4.22465e-15
8.02851e-06
8.18492e-15
8.72664e-06
-7.00138e-15
9.42478e-06
2.42281e-14
1.01229e-05
7.76708e-15
1.0821e-05
2.27612e-14
1.15192e-05
-8.35197e-15
1.22173e-05
7.40022e-15
1.29154e-05
-2.82686e-14
1.36136e-05
4.57071e-14
1.43117e-05
8.21897e-15
1.50098e-05
2.82221e-14
1.5708e-05
2.33551e-15
1.64061e-05
6.93785e-15
1.71042e-05
-2.21568e-14
1.78024e-05
3.40997e-14
1.85005e-05
3.73278e-15
1.91986e-05
3.23369e-14
1.98967e-05
2.05949e-05
-6.71541e-15
4.53785e-06
7.3063e-15
5.23599e-06
-1.11013e-14
5.93412e-06
4.24024e-15
6.63225e-06
-1.51023e-14
7.33038e-06
5.20737e-15
8.02851e-06
-1.70156e-14
8.72664e-06
3.93932e-15
9.42478e-06
2.92281e-16
1.01229e-05
-6.61394e-15
1.0821e-05
-1.37093e-14
1.15192e-05
-1.01875e-14
1.22173e-05
-1.82217e-14
1.29154e-05
-1.43699e-14
1.36136e-05
-2.33468e-14
1.43117e-05
2.53424e-14
1.50098e-05
-2.90767e-14
1.5708e-05
7.82251e-15
1.64061e-05
-3.54218e-14
1.71042e-05
4.505e-15
1.78024e-05
-4.2381e-14
1.85005e-05
5.73612e-16
1.91986e-05
8.72693e-15
1.98967e-05
2.05949e-05
-5.98632e-15
4.53785e-06
-2.19582e-16
5.23599e-06
6.43523e-15
5.93412e-06
-6.06476e-15
6.63225e-06
2.09178e-15
7.33038e-06
-1.61786e-14
8.02851e-06
1.88291e-14
8.72664e-06
2.34915e-15
9.42478e-06
-9.17316e-15
1.01229e-05
4.70782e-15
1.0821e-05
-2.16304e-14
1.15192e-05
2.9642e-14
1.22173e-05
9.28813e-15
1.29154e-05
1.89043e-14
1.36136e-05
-4.46951e-15
1.43117e-05
-3.01614e-14
1.50098e-05
2.6213e-14
1.5708e-05
-4.41857e-16
1.64061e-05
2.11661e-14
1.71042e-05
-1.87199e-14
1.78024e-05
3.91538e-15
1.85005e-05
2.91519e-14
1.91986e-05
-1.5236e-14
1.98967e-05
2.05949e-05
8.67585e-15
4.53785e-06
-1.22929e-14
5.23599e-06
-1.88411e-15
5.93412e-06
-8.90326e-15
6.63225e-06
5.10746e-15
7.33038e-06
2.19887e-14
8.02851e-06
-1.22662e-14
8.72664e-06
5.37322e-15
9.42478e-06
-4.45905e-15
1.01229e-05
1.4303e-14
1.0821e-05
7.32354e-15
1.15192e-05
-7.04446e-15
1.22173e-05
-2.3999e-14
1.29154e-05
7.55039e-15
1.36136e-05
-9.80562e-15
1.43117e-05
1.62303e-14
1.50098e-05
-4.03004e-14
1.5708e-05
-1.44502e-14
1.64061e-05
1.37011e-14
1.71042e-05
7.89087e-15
1.78024e-05
3.92435e-14
1.85005e-05
-4.27564e-14
1.91986e-05
8.84081e-15
1.98967e-05
2.05949e-05
-9.39921e-15
4.53785e-06
-5.20826e-16
5.23599e-06
-7.52904e-15
5.93412e-06
4.41116e-15
6.63225e-06
-3.78428e-15
7.33038e-06
-1.33858e-14
8.02851e-06
2.10784e-15
8.72664e-06
-8.52999e-15
9.42478e-06
1.00245e-14
1.01229e-05
-1.86855e-15
1.0821e-05
2.01991e-14
1.15192e-05
7.00949e-15
1.22173e-05
-7.51418e-15
1.29154e-05
-2.36124e-14
1.36136e-05
2.03657e-15
1.43117e-05
-1.48389e-14
1.50098e-05
1.3874e-14
1.5708e-05
-2.39779e-15
1.64061e-05
-2.042e-14
1.71042e-05
7.00956e-15
1.78024e-05
-1.20731e-14
1.85005e-05
2.5935e-14
1.91986e-05
-1.85389e-15
1.98967e-05
2.05949e-05
1.13357e-14
4.53785e-06
4.8057e-16
5.23599e-06
5.35649e-15
5.93412e-06
1.13026e-14
6.63225e-06
-4.86977e-15
7.33038e-06
1.10808e-15
8.02851e-06
8.15698e-15
8.72664e-06
-1.3046e-14
9.42478e-06
-5.95132e-15
1.01229e-05
1.99325e-15
1.0821e-05
-2.43896e-14
1.15192e-05
-1.61921e-14
1.22173e-05
3.27839e-14
1.29154e-05
3.04815e-15
1.36136e-05
1.4438e-14
1.43117e-05
2.68973e-14
1.50098e-05
-7.74577e-15
1.5708e-05
4.4323e-15
1.64061e-05
1.79936e-14
1.71042e-05
-2.1827e-14
1.78024e-05
-8.22024e-15
1.85005e-05
6.07747e-15
1.91986e-05
-3.89277e-14
1.98967e-05
2.05949e-05
1.36926e-16
9.81747e-07
2.41992e-16
1.37445e-06
3.76888e-16
1.76715e-06
-1.33944e-15
2.15984e-06
-3.68182e-15
2.55254e-06
2.94524e-06
5.95091e-15
1.79154e-18
9.81747e-07
-3.88901e-16
1.37445e-06
-2.60424e-15
1.76715e-06
1.94343e-15
2.15984e-06
8.06589e-15
2.55254e-06
2.94524e-06
-9.03016e-15
-1.16502e-16
9.81747e-07
1.86288e-16
1.37445e-06
-1.56244e-15
1.76715e-06
-4.21269e-15
2.15984e-06
-7.49869e-15
2.55254e-06
2.94524e-06
7.71919e-16
8.6895e-17
9.81747e-07
-1.01985e-16
1.37445e-06
2.69305e-15
1.76715e-06
7.44266e-15
2.15984e-06
3.25953e-15
2.55254e-06
2.94524e-06
-2.79836e-15
-4.84294e-17
9.81747e-07
3.94662e-17
1.37445e-06
1.94207e-16
1.76715e-06
-1.80627e-15
2.15984e-06
-4.20881e-15
2.55254e-06
2.94524e-06
5.01304e-15
-1.80146e-16
9.81747e-07
4.24009e-18
1.37445e-06
-1.84788e-15
1.76715e-06
-3.88626e-15
2.15984e-06
3.15684e-15
2.55254e-06
2.94524e-06
4.97733e-16
2.53939e-16
9.81747e-07
2.55339e-16
1.37445e-06
2.06588e-15
1.76715e-06
4.50389e-15
2.15984e-06
-2.31022e-15
2.55254e-06
2.94524e-06
5.40646e-16
2.16178e-17
9.81747e-07
-3.21797e-16
1.37445e-06
-1.14894e-15
1.76715e-06
-5.28586e-15
2.15984e-06
-3.7712e-16
2.55254e-06
2.94524e-06
-5.64023e-15
-1.43434e-16
9.81747e-07
1.66278e-16
1.37445e-06
4.19109e-15
1.76715e-06
6.34934e-15
2.15984e-06
-8.06022e-16
2.55254e-06
2.94524e-06
8.39023e-16
-6.885e-17
9.81747e-07
-9.21848e-17
1.37445e-06
-2.76946e-15
1.76715e-06
-3.68935e-16
2.15984e-06
-1.45113e-15
2.55254e-06
2.94524e-06
-1.77099e-16
1.66304e-16
9.81747e-07
-8.87771e-17
1.37445e-06
5.69516e-16
1.76715e-06
-2.1037e-15
2.15984e-06
9.6597e-15
2.55254e-06
2.94524e-06
5.2898e-15
-1.7783e-16
9.81747e-07
-2.06105e-17
1.37445e-06
-3.45554e-16
1.76715e-06
-4.17282e-15
2.15984e-06
-2.62279e-15
2.55254e-06
2.94524e-06
5.36921e-15
1.77765e-16
9.81747e-07
2.04157e-17
1.37445e-06
3.45286e-16
1.76715e-06
4.17239e-15
2.15984e-06
2.62217e-15
2.55254e-06
2.94524e-06
-5.36975e-15
-1.6635e-16
9.81747e-07
8.86285e-17
1.37445e-06
-5.69784e-16
1.76715e-06
2.10334e-15
2.15984e-06
-9.66025e-15
2.55254e-06
2.94524e-06
-5.29072e-15
6.87823e-17
9.81747e-07
9.19536e-17
1.37445e-06
2.76929e-15
1.76715e-06
3.68568e-16
2.15984e-06
1.4506e-15
2.55254e-06
2.94524e-06
1.76109e-16
1.43382e-16
9.81747e-07
-1.66548e-16
1.37445e-06
-4.1912e-15
1.76715e-06
-6.34964e-15
2.15984e-06
8.05506e-16
2.55254e-06
2.94524e-06
-8.39625e-16
-2.17064e-17
9.81747e-07
3.21582e-16
1.37445e-06
1.14882e-15
1.76715e-06
5.28542e-15
2.15984e-06
3.76572e-16
2.55254e-06
2.94524e-06
5.63936e-15
-2.54048e-16
9.81747e-07
-2.55508e-16
1.37445e-06
-2.0661e-15
1.76715e-06
-4.50433e-15
2.15984e-06
2.3097e-15
2.55254e-06
2.94524e-06
-5.41203e-16
1.8007e-16
9.81747e-07
-4.40867e-18
1.37445e-06
1.84757e-15
1.76715e-06
3.88607e-15
2.15984e-06
-3.15719e-15
2.55254e-06
2.94524e-06
-4.98597e-16
4.833e-17
9.81747e-07
-3.96164e-17
1.37445e-06
-1.9447e-16
1.76715e-06
1.806e-15
2.15984e-06
4.20833e-15
2.55254e-06
2.94524e-06
-5.01369e-15
-8.69918e-17
9.81747e-07
1.01853e-16
1.37445e-06
-2.69324e-15
1.76715e-06
-7.44293e-15
2.15984e-06
-3.26006e-15
2.55254e-06
2.94524e-06
2.79754e-15
1.16413e-16
9.81747e-07
-1.86444e-16
1.37445e-06
1.56234e-15
1.76715e-06
4.21236e-15
2.15984e-06
7.49812e-15
2.55254e-06
2.94524e-06
-7.72659e-16
-1.90584e-18
9.81747e-07
3.88723e-16
1.37445e-06
2.60412e-15
1.76715e-06
-1.94379e-15
2.15984e-06
-8.06639e-15
2.55254e-06
2.94524e-06
9.02962e-15
-1.36984e-16
-2.4218e-16
-3.77105e-16
1.33916e-15
3.68131e-15
-5.95172e-15
-1.13364e-14
4.53785e-06
-4.81697e-16
5.23599e-06
-5.35775e-15
5.93412e-06
-1.13042e-14
6.63225e-06
4.86789e-15
7.33038e-06
-1.11091e-15
8.02851e-06
-8.15982e-15
8.72664e-06
1.30417e-14
9.42478e-06
5.94684e-15
1.01229e-05
-1.99903e-15
1.0821e-05
2.43826e-14
1.15192e-05
1.61874e-14
1.22173e-05
-3.27894e-14
1.29154e-05
-3.05663e-15
1.36136e-05
-1.44464e-14
1.43117e-05
-2.69057e-14
1.50098e-05
7.73687e-15
1.5708e-05
-4.44363e-15
1.64061e-05
-1.80057e-14
1.71042e-05
2.18154e-14
1.78024e-05
8.2064e-15
1.85005e-05
-6.09215e-15
1.91986e-05
3.89125e-14
1.98967e-05
2.05949e-05
9.39855e-15
4.53785e-06
5.19886e-16
5.23599e-06
7.52771e-15
5.93412e-06
-4.41302e-15
6.63225e-06
3.78212e-15
7.33038e-06
1.33836e-14
8.02851e-06
-2.11167e-15
8.72664e-06
8.52752e-15
9.42478e-06
-1.00303e-14
1.01229e-05
1.86351e-15
1.0821e-05
-2.02053e-14
1.15192e-05
-7.01416e-15
1.22173e-05
7.5078e-15
1.29154e-05
2.36045e-14
1.36136e-05
-2.04491e-15
1.43117e-05
1.48283e-14
1.50098e-05
-1.38818e-14
1.5708e-05
2.38704e-15
1.64061e-05
2.04069e-14
1.71042e-05
-7.02524e-15
1.78024e-05
1.20613e-14
1.85005e-05
-2.59478e-14
1.91986e-05
1.84038e-15
1.98967e-05
2.05949e-05
-8.67619e-15
4.53785e-06
1.22917e-14
5.23599e-06
1.88238e-15
5.93412e-06
8.90119e-15
6.63225e-06
-5.10986e-15
7.33038e-06
-2.19919e-14
8.02851e-06
1.22634e-14
8.72664e-06
-5.37562e-15
9.42478e-06
4.45538e-15
1.01229e-05
-1.43076e-14
1.0821e-05
-7.32754e-15
1.15192e-05
7.03714e-15
1.22173e-05
2.39921e-14
1.29154e-05
-7.55783e-15
1.36136e-05
9.79649e-15
1.43117e-05
-1.62393e-14
1.50098e-05
4.02909e-14
1.5708e-05
1.44401e-14
1.64061e-05
-1.37102e-14
1.71042e-05
-7.90153e-15
1.78024e-05
-3.92558e-14
1.85005e-05
4.27432e-14
1.91986e-05
-8.85631e-15
1.98967e-05
2.05949e-05
5.98548e-15
4.53785e-06
2.18413e-16
5.23599e-06
-6.43607e-15
5.93412e-06
6.06332e-15
6.63225e-06
-2.09395e-15
7.33038e-06
1.61751e-14
8.02851e-06
-1.88318e-14
8.72664e-06
-2.35287e-15
9.42478e-06
9.171e-15
1.01229e-05
-4.71235e-15
1.0821e-05
2.16244e-14
1.15192e-05
-2.96468e-14
1.22173e-05
-9.29185e-15
1.29154e-05
-1.89116e-14
1.36136e-05
4.46182e-15
1.43117e-05
3.01522e-14
1.50098e-05
-2.62214e-14
1.5708e-05
4.31201e-16
1.64061e-05
-2.11789e-14
1.71042e-05
1.87106e-14
1.78024e-05
-3.92832e-15
1.85005e-05
-2.91683e-14
1.91986e-05
1.52266e-14
1.98967e-05
2.05949e-05
6.71444e-15
4.53785e-06
-7.30722e-15
5.23599e-06
1.11004e-14
5.93412e-06
-4.2419e-15
6.63225e-06
1.51011e-14
7.33038e-06
-5.21e-15
8.02851e-06
1.70121e-14
8.72664e-06
-3.94193e-15
9.42478e-06
-2.95927e-16
1.01229e-05
6.60833e-15
1.0821e-05
1.37023e-14
1.15192e-05
1.01826e-14
1.22173e-05
1.82137e-14
1.29154e-05
1.43644e-14
1.36136e-05
2.3336e-14
1.43117e-05
-2.53493e-14
1.50098e-05
2.90688e-14
1.5708e-05
-7.83007e-15
1.64061e-05
3.54112e-14
1.71042e-05
-4.51787e-15
1.78024e-05
4.23622e-14
1.85005e-05
-5.92706e-16
1.91986e-05
-8.73551e-15
1.98967e-05
2.05949e-05
-4.63063e-15
4.53785e-06
5.79694e-15
5.23599e-06
-1.61509e-14
5.93412e-06
-5.97515e-15
6.63225e-06
-8.55583e-15
7.33038e-06
4.22272e-15
8.02851e-06
-8.18894e-15
8.72664e-06
6.99821e-15
9.42478e-06
-2.42311e-14
1.01229e-05
-7.77202e-15
1.0821e-05
-2.27673e-14
1.15192e-05
8.3465e-15
1.22173e-05
-7.40769e-15
1.29154e-05
2.82631e-14
1.36136e-05
-4.57137e-14
1.43117e-05
-8.22816e-15
1.50098e-05
-2.82293e-14
1.5708e-05
-2.34327e-15
1.64061e-05
-6.94847e-15
1.71042e-05
2.21452e-14
1.78024e-05
-3.41134e-14
1.85005e-05
-3.74789e-15
1.91986e-05
-3.23525e-14
1.98967e-05
2.05949e-05
-8.92535e-15
4.53785e-06
-2.28939e-15
5.23599e-06
-2.22478e-15
5.93412e-06
6.61567e-15
6.63225e-06
-3.38859e-15
7.33038e-06
-3.90896e-15
8.02851e-06
-6.42009e-15
8.72664e-06
-7.16052e-15
9.42478e-06
6.80789e-15
1.01229e-05
6.98178e-15
1.0821e-05
-9.06701e-15
1.15192e-05
6.75636e-15
1.22173e-05
-2.88916e-14
1.29154e-05
-1.22371e-14
1.36136e-05
4.80273e-15
1.43117e-05
2.50218e-14
1.50098e-05
3.85624e-15
1.5708e-05
3.60114e-15
1.64061e-05
-2.04877e-14
1.71042e-05
-2.17674e-14
1.78024e-05
3.46172e-15
1.85005e-05
2.90352e-14
1.91986e-05
-1.66683e-15
1.98967e-05
2.05949e-05
6.21538e-15
4.53785e-06
-3.87996e-15
5.23599e-06
1.54212e-14
5.93412e-06
-7.06612e-15
6.63225e-06
-2.21114e-15
7.33038e-06
1.42845e-15
8.02851e-06
-5.49514e-15
8.72664e-06
1.32243e-14
9.42478e-06
6.04353e-15
1.01229e-05
-1.74536e-14
1.0821e-05
2.08836e-14
1.15192e-05
-2.14479e-14
1.22173e-05
1.91301e-14
1.29154e-05
-7.32077e-15
1.36136e-05
3.84841e-14
1.43117e-05
-1.2927e-14
1.50098e-05
-1.88768e-15
1.5708e-05
5.71381e-15
1.64061e-05
-7.59391e-15
1.71042e-05
2.7653e-14
1.78024e-05
1.40898e-14
1.85005e-05
-5.31499e-14
1.91986e-05
3.90801e-14
1.98967e-05
2.05949e-05
-1.49894e-15
4.53785e-06
1.08964e-14
5.23599e-06
-6.59968e-15
5.93412e-06
7.26438e-15
6.63225e-06
6.17434e-15
7.33038e-06
2.48753e-15
8.02851e-06
-9.65592e-16
8.72664e-06
-4.36664e-15
9.42478e-06
-8.9029e-15
1.01229e-05
1.38613e-14
1.0821e-05
1.06864e-14
1.15192e-05
6.24856e-15
1.22173e-05
-1.30317e-16
1.29154e-05
-3.44255e-15
1.36136e-05
-1.10502e-14
1.43117e-05
-1.7767e-14
1.50098e-05
1.7676e-14
1.5708e-05
9.95012e-15
1.64061e-05
3.32346e-15
1.71042e-05
-3.29749e-14
1.78024e-05
-1.04297e-14
1.85005e-05
3.00583e-14
1.91986e-05
-6.00012e-14
1.98967e-05
2.05949e-05
5.1697e-15
4.53785e-06
-7.45594e-15
5.23599e-06
-7.56996e-16
5.93412e-06
6.8385e-15
6.63225e-06
-9.97537e-15
7.33038e-06
-1.66497e-15
8.02851e-06
9.21769e-15
8.72664e-06
-1.34604e-14
9.42478e-06
2.32195e-14
1.01229e-05
1.04703e-14
1.0821e-05
-1.72749e-14
1.15192e-05
-3.02798e-15
1.22173e-05
1.13955e-14
1.29154e-05
-1.98213e-14
1.36136e-05
-4.68123e-15
1.43117e-05
5.03028e-14
1.50098e-05
-2.40493e-14
1.5708e-05
-6.65986e-15
1.64061e-05
1.4257e-14
1.71042e-05
1.6465e-15
1.78024e-05
-6.81571e-15
1.85005e-05
1.44354e-14
1.91986e-05
5.07542e-14
1.98967e-05
2.05949e-05
-6.19769e-15
4.53785e-06
2.81483e-17
5.23599e-06
1.15109e-14
5.93412e-06
-2.06271e-14
6.63225e-06
5.36559e-15
7.33038e-06
1.22018e-15
8.02851e-06
-4.94015e-17
8.72664e-06
1.23914e-14
9.42478e-06
-1.32276e-14
1.01229e-05
-1.8897e-14
1.0821e-05
-4.96669e-15
1.15192e-05
-7.15618e-15
1.22173e-05
-1.489e-14
1.29154e-05
3.53358e-14
1.36136e-05
-4.93471e-18
1.43117e-05
-4.31407e-14
1.50098e-05
1.35593e-14
1.5708e-05
-2.82602e-14
1.64061e-05
2.45111e-15
1.71042e-05
-1.02468e-14
1.78024e-05
2.37971e-14
1.85005e-05
1.38643e-14
1.91986e-05
-4.5567e-14
1.98967e-05
2.05949e-05
-1.90721e-15
4.53785e-06
1.12989e-15
5.23599e-06
-2.16628e-14
5.93412e-06
9.62295e-15
6.63225e-06
1.51358e-14
7.33038e-06
-1.40665e-14
8.02851e-06
8.09133e-15
8.72664e-06
-2.69616e-14
9.42478e-06
-1.96772e-15
1.01229e-05
2.97142e-14
1.0821e-05
-1.17475e-14
1.15192e-05
1.98642e-14
1.22173e-05
-2.74492e-14
1.29154e-05
-2.06193e-14
1.36136e-05
1.60347e-14
1.43117e-05
-4.61755e-15
1.50098e-05
4.6836e-15
1.5708e-05
4.7962e-14
1.64061e-05
-1.37501e-14
1.71042e-05
3.23653e-14
1.78024e-05
-3.5193e-14
1.85005e-05
-2.49106e-14
1.91986e-05
7.19091e-14
1.98967e-05
2.05949e-05
1.90629e-15
4.53785e-06
-1.13144e-15
5.23599e-06
2.16613e-14
5.93412e-06
-9.62507e-15
6.63225e-06
-1.51382e-14
7.33038e-06
1.40646e-14
8.02851e-06
-8.09423e-15
8.72664e-06
2.69576e-14
9.42478e-06
1.96323e-15
1.01229e-05
-2.97196e-14
1.0821e-05
1.17436e-14
1.15192e-05
-1.98681e-14
1.22173e-05
2.744e-14
1.29154e-05
2.06109e-14
1.36136e-05
-1.60438e-14
1.43117e-05
4.61222e-15
1.50098e-05
-4.69825e-15
1.5708e-05
-4.79714e-14
1.64061e-05
1.37317e-14
1.71042e-05
-3.23769e-14
1.78024e-05
3.51813e-14
1.85005e-05
2.48988e-14
1.91986e-05
-7.1918e-14
1.98967e-05
2.05949e-05
6.19677e-15
4.53785e-06
-2.89988e-17
5.23599e-06
-1.15122e-14
5.93412e-06
2.06248e-14
6.63225e-06
-5.36754e-15
7.33038e-06
-1.22264e-15
8.02851e-06
4.50789e-17
8.72664e-06
-1.23954e-14
9.42478e-06
1.3224e-14
1.01229e-05
1.88911e-14
1.0821e-05
4.96257e-15
1.15192e-05
7.15043e-15
1.22173e-05
1.48839e-14
1.29154e-05
-3.5344e-14
1.36136e-05
-1.2081e-18
1.43117e-05
4.31341e-14
1.50098e-05
-1.35671e-14
1.5708e-05
2.8251e-14
1.64061e-05
-2.46185e-15
1.71042e-05
1.02322e-14
1.78024e-05
-2.38139e-14
1.85005e-05
-1.38838e-14
1.91986e-05
4.55611e-14
1.98967e-05
2.05949e-05
-5.17046e-15
4.53785e-06
7.45495e-15
5.23599e-06
7.56184e-16
5.93412e-06
-6.8412e-15
6.63225e-06
9.97384e-15
7.33038e-06
1.66337e-15
8.02851e-06
-9.22023e-15
8.72664e-06
1.34577e-14
9.42478e-06
-2.32234e-14
1.01229e-05
-1.04739e-14
1.0821e-05
1.72696e-14
1.15192e-05
3.02474e-15
1.22173e-05
-1.14012e-14
1.29154e-05
1.98134e-14
1.36136e-05
4.67617e-15
1.43117e-05
-5.03095e-14
1.50098e-05
2.40402e-14
1.5708e-05
6.65348e-15