/*--------------------------------*- C++ -*----------------------------------*\
  =========                 |
  \\      /  F ield         | OpenFOAM: The Open Source CFD Toolbox
   \\    /   O peration     | Website:  https://openfoam.org
    \\  /    A nd           | Version:  11
     \\/     M anipulation  |
\*---------------------------------------------------------------------------*/
FoamFile
{
    format      ascii;
    class       volScalarField;
    location    "0.12";
    object      p;
}
// * * * * * * * * * * * * * * * * * * * * * * * * * * * * * * * * * * * * * //

dimensions      [0 2 -2 0 0 0 0];

internalField   nonuniform List<scalar> 
2880
(
-0.549494
-0.602487
-0.67326
-0.720699
-0.74624
-0.950984
-0.55738
-0.60994
-0.677685
-0.724392
-0.734685
-0.866726
-0.565026
-0.617035
-0.682211
-0.729628
-0.726745
-0.804093
-0.572325
-0.624173
-0.686558
-0.733967
-0.722364
-0.75622
-0.579336
-0.631227
-0.690618
-0.735282
-0.721823
-0.716986
-0.585575
-0.63772
-0.693012
-0.732538
-0.717622
-0.686824
-0.59067
-0.642321
-0.692578
-0.725726
-0.707723
-0.661112
-0.594142
-0.644225
-0.688804
-0.714796
-0.69307
-0.636234
-0.595596
-0.643146
-0.68176
-0.700152
-0.674142
-0.610737
-0.594814
-0.639078
-0.671802
-0.68213
-0.651729
-0.584403
-0.591728
-0.632191
-0.659223
-0.661447
-0.626585
-0.557267
-0.586355
-0.622801
-0.644401
-0.638818
-0.599379
-0.529459
-0.578764
-0.61141
-0.627874
-0.614833
-0.570781
-0.501189
-0.569201
-0.598616
-0.610118
-0.590009
-0.541456
-0.472615
-0.558129
-0.5848
-0.591547
-0.564811
-0.511979
-0.444034
-0.54609
-0.570326
-0.572507
-0.539654
-0.482799
-0.415853
-0.53367
-0.555568
-0.553273
-0.514839
-0.454397
-0.388494
-0.521466
-0.540896
-0.534043
-0.490485
-0.427024
-0.362309
-0.51005
-0.526681
-0.51495
-0.4665
-0.400381
-0.33722
-0.499911
-0.51343
-0.496159
-0.442655
-0.373726
-0.312299
-0.491518
-0.502135
-0.47806
-0.418632
-0.345969
-0.284858
-0.485747
-0.494196
-0.461191
-0.393639
-0.315027
-0.248768
-0.483841
-0.48942
-0.4452
-0.365421
-0.277105
-0.19755
-0.485022
-0.482214
-0.427372
-0.331445
-0.228838
-0.142165
-0.169593
0.218815
0.277634
0.336979
0.362184
0.371247
0.371861
0.369227
0.365781
0.362605
0.35993
0.357708
0.35593
0.354571
0.353552
0.352759
0.352093
0.351488
0.350809
0.349744
0.34862
0.350785
0.360406
0.357816
-0.358128
0.0399075
0.169372
0.255909
0.296548
0.316371
0.32497
0.328356
0.329504
0.329875
0.329979
0.329958
0.32993
0.329958
0.330034
0.330106
0.33012
0.330051
0.329781
0.328983
0.327979
0.330406
0.341062
0.33856
-0.423517
-0.0829838
0.0794098
0.182031
0.234481
0.263386
0.279115
0.288051
0.293516
0.297262
0.300027
0.30213
0.303801
0.305187
0.306343
0.307272
0.307967
0.308437
0.308584
0.308068
0.307204
0.309874
0.321452
0.319058
-0.455193
-0.162994
0.00698209
0.116864
0.1776
0.213613
0.235314
0.249096
0.258441
0.265275
0.270506
0.274597
0.277878
0.280562
0.282762
0.284529
0.285896
0.286903
0.287472
0.287256
0.286562
0.289462
0.301829
0.299557
-0.476344
-0.218475
-0.0512742
0.060314
0.126471
0.167752
0.194226
0.212068
0.224771
0.234337
0.241784
0.247691
0.252462
0.256364
0.259557
0.262132
0.264156
0.265696
0.266691
0.266796
0.266305
0.269428
0.282438
0.280316
-0.487845
-0.257846
-0.0977856
0.0121268
0.0811657
0.126123
0.156252
0.177362
0.192868
0.204775
0.214163
0.22169
0.227813
0.232839
0.236965
0.240312
0.242976
0.245042
0.246469
0.246917
0.246668
0.250004
0.263507
0.261607
-0.489938
-0.284793
-0.134211
-0.028119
0.0416107
0.0888414
0.121594
0.145219
0.162981
0.17683
0.187873
0.196815
0.204144
0.210196
0.215191
0.219274
0.222559
0.225148
0.227015
0.227831
0.22786
0.231396
0.245237
0.2437
-0.48454
-0.301971
-0.161981
-0.061172
0.00763562
0.0558777
0.090307
0.115757
0.135256
0.150662
0.163079
0.173229
0.18162
0.1886
0.194404
0.19919
0.203084
0.206199
0.208522
0.209734
0.210077
0.213782
0.227797
0.226883
-0.473906
-0.311477
-0.182501
-0.0878381
-0.0210901
0.0270986
0.0623302
0.0889883
0.109753
0.126357
0.139878
0.151041
0.160353
0.16817
0.17473
0.180198
0.184704
0.188362
0.191168
0.192819
0.193509
0.197317
0.211305
0.211492
-0.459793
-0.314814
-0.197027
-0.108929
-0.0450145
0.00233283
0.0374972
0.0648548
0.0864685
0.103941
0.118312
0.130298
0.140401
0.148971
0.156247
0.162393
0.167534
0.17178
0.175132
0.177298
0.178384
0.182147
0.195757
0.197995
-0.443246
-0.313263
-0.206508
-0.125207
-0.0646555
-0.0185584
0.0154536
0.043261
0.065358
0.083387
0.0983666
0.110994
0.121761
0.131008
0.138968
0.145803
0.15163
0.15655
0.160573
0.16343
0.165048
0.168428
0.180738
0.187367
-0.424919
-0.307785
-0.211867
-0.137302
-0.0806393
-0.0368595
-0.00300132
0.0242385
0.0463514
0.0646275
0.0799808
0.0930723
0.104373
0.114212
0.122819
0.130354
0.136935
0.142661
0.147572
0.151472
0.154093
0.157001
0.166289
0.181975
-0.404501
-0.299916
-0.213862
-0.145886
-0.0933236
-0.0519802
-0.0191797
0.00740983
0.0292755
0.0475413
0.0630516
0.0764286
0.0881199
0.0984429
0.107622
0.115819
0.123163
0.129768
0.135693
0.140793
0.145012
0.150475
0.162189
0.166814
-0.383143
-0.289729
-0.212995
-0.151598
-0.103174
-0.0644464
-0.0331195
-0.00741001
0.0139604
0.0319898
0.0474555
0.0609379
0.0728568
0.0835095
0.0931034
0.101785
0.109662
0.116817
0.123233
0.12867
0.133235
0.139905
0.153145
0.147598
-0.361349
-0.27796
-0.209887
-0.15485
-0.110588
-0.0746034
-0.0450061
-0.020417
0.000237844
0.0178334
0.0330704
0.0464846
0.0584643
0.0692803
0.0791148
0.0880879
0.0962815
0.103745
0.110422
0.116042
0.12082
0.128063
0.141824
0.132959
-0.339582
-0.265209
-0.205053
-0.156016
-0.115932
-0.0827793
-0.0550991
-0.0318255
-0.0120616
0.00493508
0.0197833
0.0329733
0.0448622
0.0556917
0.0656166
0.0747307
0.0830933
0.0907384
0.097607
0.103452
0.10854
0.11624
0.13037
0.120831
-0.318396
-0.251961
-0.198927
-0.155497
-0.119515
-0.0892781
-0.0636478
-0.041849
-0.0231109
-0.00684189
0.00748459
0.0203186
0.0319881
0.0427067
0.0526021
0.0617444
0.0701758
0.0779291
0.0849648
0.0910469
0.0964674
0.104578
0.119027
0.109891
-0.298501
-0.238755
-0.191931
-0.153666
-0.121666
-0.0943772
-0.0708803
-0.050708
-0.0330922
-0.0176385
-0.00393898
0.00843174
0.0197789
0.0302884
0.0400618
0.0491477
0.057577
0.065395
0.0725649
0.0788571
0.0846045
0.0930641
0.107754
0.0996668
-0.280512
-0.226129
-0.184489
-0.15088
-0.122697
-0.0983584
-0.0771042
-0.0585772
-0.0421783
-0.0275884
-0.0146073
-0.00278833
0.00815805
0.0183862
0.0279708
0.0369393
0.0453186
0.0531562
0.0604062
0.0668742
0.0729138
0.0816142
0.0964268
0.0898763
-0.264441
-0.214402
-0.176958
-0.147473
-0.122902
-0.101502
-0.0825409
-0.0657699
-0.0505678
-0.0368373
-0.0246662
-0.0134688
-0.0029751
0.00692777
0.0162847
0.0251017
0.0333975
0.0412087
0.0484885
0.0550848
0.0613453
0.0701378
0.0848899
0.0802698
-0.249004
-0.203401
-0.169518
-0.14372
-0.122546
-0.104045
-0.0874079
-0.0723801
-0.0584812
-0.0457772
-0.0343895
-0.023802
-0.0137641
-0.00419098
0.0049365
0.0136022
0.0218054
0.0295652
0.0368413
0.0435167
0.0499114
0.0586152
0.0730338
0.0706348
-0.231296
-0.192202
-0.16211
-0.139826
-0.121885
-0.106221
-0.0918735
-0.0786532
-0.0662744
-0.0546698
-0.0440207
-0.0339924
-0.0243761
-0.0150964
-0.00615626
0.00240082
0.0105448
0.0182712
0.0255493
0.0322819
0.0387304
0.0471529
0.0608815
0.060842
-0.209094
-0.179206
-0.154322
-0.135768
-0.121082
-0.108289
-0.0963466
-0.0849394
-0.0740154
-0.0635736
-0.053731
-0.0442551
-0.0350018
-0.0259363
-0.017092
-0.00854556
-0.000365731
0.00741219
0.0147512
0.021576
0.0280703
0.0360646
0.0486845
0.0509094
-0.189333
-0.166401
-0.146647
-0.131584
-0.120156
-0.110389
-0.101054
-0.0916702
-0.0822062
-0.0728447
-0.0638698
-0.0549231
-0.0459191
-0.0369219
-0.0280104
-0.0193006
-0.0109123
-0.00292093
0.00462318
0.0116641
0.0183104
0.0258767
0.0370199
0.0411072
-0.273976
-0.264668
-0.259665
-0.256096
-0.255551
-0.26376
-0.27451
-0.265978
-0.262658
-0.260883
-0.261164
-0.271649
-0.275671
-0.267875
-0.266398
-0.266105
-0.266128
-0.27152
-0.276129
-0.2696
-0.26951
-0.269924
-0.269494
-0.270594
-0.275747
-0.271012
-0.271912
-0.27262
-0.271916
-0.270607
-0.275978
-0.272465
-0.274012
-0.27485
-0.274026
-0.271497
-0.276892
-0.274175
-0.276069
-0.276972
-0.276125
-0.273052
-0.277974
-0.27613
-0.278165
-0.279132
-0.278339
-0.275184
-0.279101
-0.278241
-0.280302
-0.281379
-0.280748
-0.277771
-0.280248
-0.280401
-0.282452
-0.283712
-0.283367
-0.280824
-0.281385
-0.282516
-0.284571
-0.286117
-0.286197
-0.284271
-0.282482
-0.284496
-0.286614
-0.288562
-0.289223
-0.28807
-0.283517
-0.286277
-0.288539
-0.291009
-0.292401
-0.292164
-0.284473
-0.287814
-0.29031
-0.293413
-0.295672
-0.296463
-0.285339
-0.289082
-0.291903
-0.295731
-0.298972
-0.300864
-0.286109
-0.290074
-0.293306
-0.297921
-0.302231
-0.30523
-0.28678
-0.290803
-0.294517
-0.299941
-0.305381
-0.309403
-0.287351
-0.291294
-0.295544
-0.301749
-0.308337
-0.313229
-0.287804
-0.291588
-0.296402
-0.303301
-0.310981
-0.31654
-0.287941
-0.291802
-0.297115
-0.304555
-0.313189
-0.319057
-0.28789
-0.292251
-0.297728
-0.305462
-0.31483
-0.320324
-0.288092
-0.292909
-0.298285
-0.305949
-0.315773
-0.320122
-0.288331
-0.293561
-0.298773
-0.305966
-0.315909
-0.320228
-0.288417
-0.294044
-0.299145
-0.305753
-0.315375
-0.324977
-0.191975
-0.165
-0.144202
-0.129607
-0.120054
-0.112916
-0.106216
-0.0990494
-0.0914389
-0.0835012
-0.0750292
-0.0664471
-0.0574668
-0.0482963
-0.0390627
-0.0299353
-0.0210963
-0.0126569
-0.00468403
0.00277213
0.00976862
0.0171362
0.0267272
0.0320528
-0.209723
-0.17618
-0.150335
-0.133552
-0.12382
-0.118043
-0.113457
-0.108586
-0.102845
-0.0960575
-0.0880946
-0.0794187
-0.0702448
-0.0606158
-0.0506063
-0.0405859
-0.030933
-0.0217506
-0.0130894
-0.00498476
0.00259113
0.0101265
0.0185697
0.0245167
-0.226757
-0.192086
-0.163703
-0.144652
-0.133515
-0.1281
-0.125494
-0.122665
-0.118301
-0.111898
-0.103442
-0.0937992
-0.0839182
-0.0735618
-0.062697
-0.0515421
-0.0406547
-0.0303414
-0.02069
-0.0117171
-0.00339263
0.00458965
0.012465
0.0195997
-0.239354
-0.208705
-0.181268
-0.161307
-0.148805
-0.142325
-0.139513
-0.138592
-0.137236
-0.132322
-0.12397
-0.113383
-0.100795
-0.0872696
-0.0742101
-0.061723
-0.0495398
-0.0379196
-0.0271485
-0.0173116
-0.00838774
-8.04955e-05
0.0078712
0.0179417
-0.248003
-0.223115
-0.19875
-0.179649
-0.166551
-0.158854
-0.155055
-0.153346
-0.15164
-0.149127
-0.144681
-0.135883
-0.122452
-0.1064
-0.0896425
-0.0732596
-0.0579477
-0.0441251
-0.0318503
-0.0209819
-0.0114377
-0.00289438
0.00526836
0.0160311
-0.254308
-0.234302
-0.213515
-0.196141
-0.183207
-0.174679
-0.169593
-0.166338
-0.163623
-0.160502
-0.155281
-0.147061
-0.1362
-0.122543
-0.105937
-0.0875678
-0.069216
-0.0523411
-0.0374453
-0.0245631
-0.0135945
-0.00420229
0.0041626
0.0143977
-0.259498
-0.243032
-0.225344
-0.209767
-0.197246
-0.187986
-0.181413
-0.176396
-0.171735
-0.166507
-0.159909
-0.151176
-0.139658
-0.12537
-0.109247
-0.0925146
-0.0758397
-0.0594697
-0.0439685
-0.0298384
-0.0173439
-0.00621686
0.00257345
0.0102033
-0.264256
-0.250377
-0.235117
-0.221031
-0.208903
-0.198966
-0.190871
-0.183838
-0.176956
-0.169437
-0.160756
-0.15049
-0.138168
-0.123786
-0.107968
-0.0915142
-0.0751135
-0.0593783
-0.044746
-0.0313695
-0.0192565
-0.00820262
0.00143945
0.00947176
-0.268982
-0.257095
-0.243748
-0.230859
-0.21905
-0.208525
-0.19906
-0.190125
-0.181101
-0.171435
-0.160765
-0.148878
-0.135619
-0.121
-0.10536
-0.0892827
-0.0733597
-0.0580637
-0.0437161
-0.0305095
-0.0185451
-0.00771971
0.00202117
0.00870081
-0.273843
-0.263619
-0.25189
-0.24
-0.228467
-0.217465
-0.206842
-0.196259
-0.185333
-0.173734
-0.161266
-0.147856
-0.13351
-0.118342
-0.10263
-0.0867868
-0.0712172
-0.0562552
-0.0421513
-0.0290976
-0.0172317
-0.00642188
0.00363743
0.00957509
-0.278938
-0.270217
-0.259918
-0.248932
-0.23768
-0.226307
-0.214706
-0.202688
-0.190063
-0.176687
-0.162515
-0.147598
-0.132061
-0.116085
-0.0999331
-0.0839372
-0.0684101
-0.053586
-0.0396308
-0.026674
-0.0147298
-0.00318254
0.00916677
0.0161117
-0.284289
-0.27701
-0.268062
-0.257971
-0.247074
-0.235452
-0.223005
-0.209708
-0.195516
-0.180431
-0.164556
-0.148069
-0.131196
-0.11419
-0.0973249
-0.0808916
-0.0651438
-0.0502375
-0.0362514
-0.0232412
-0.0109969
0.00182975
0.0176184
0.0257233
-0.289887
-0.284049
-0.276462
-0.267367
-0.256918
-0.245066
-0.231927
-0.217525
-0.201873
-0.185118
-0.167506
-0.149341
-0.130954
-0.112682
-0.0948533
-0.0777669
-0.0616461
-0.0466079
-0.0326936
-0.0199129
-0.00803501
0.00468812
0.0208583
0.0281091
-0.295702
-0.291332
-0.285162
-0.276984
-0.266967
-0.255142
-0.241553
-0.226163
-0.209121
-0.190712
-0.171323
-0.151404
-0.131404
-0.11175
-0.0928329
-0.0749826
-0.0584402
-0.0433431
-0.0297687
-0.0177593
-0.00712405
0.00332509
0.0151426
0.019369
-0.301669
-0.298723
-0.293906
-0.286713
-0.277371
-0.265785
-0.251843
-0.235581
-0.217234
-0.197216
-0.176062
-0.154362
-0.132681
-0.111551
-0.0914655
-0.0728096
-0.0558324
-0.0406871
-0.0274769
-0.0162769
-0.00707859
0.000459977
0.00660804
0.00780081
-0.307656
-0.306108
-0.302658
-0.296597
-0.288056
-0.276806
-0.262678
-0.245715
-0.226219
-0.204704
-0.181849
-0.158386
-0.135033
-0.11244
-0.0911412
-0.0715241
-0.0538647
-0.0383693
-0.0251727
-0.01438
-0.00607575
-0.000348343
0.00252138
0.00219997
-0.313499
-0.313295
-0.311185
-0.306293
-0.298667
-0.28793
-0.273833
-0.256391
-0.235944
-0.213111
-0.188713
-0.163612
-0.138596
-0.114433
-0.0917912
-0.0711493
-0.0528064
-0.0369144
-0.0235378
-0.0127009
-0.00443074
0.00123531
0.00415671
0.00436306
-0.318977
-0.319993
-0.319157
-0.315434
-0.308824
-0.298778
-0.284933
-0.267251
-0.246088
-0.222164
-0.196354
-0.169601
-0.14299
-0.117557
-0.0940061
-0.0727196
-0.053908
-0.0376579
-0.0239675
-0.0127646
-0.00395503
0.0026923
0.00722558
0.00979276
-0.323878
-0.325936
-0.326216
-0.323613
-0.318075
-0.308856
-0.295447
-0.277729
-0.256065
-0.231148
-0.204005
-0.176016
-0.148515
-0.122432
-0.0983694
-0.0767099
-0.0576683
-0.0413029
-0.0275334
-0.0161934
-0.00693805
0.000616335
0.00589472
0.0113324
-0.327986
-0.330858
-0.332031
-0.330428
-0.325947
-0.3176
-0.304703
-0.28704
-0.264898
-0.239153
-0.211254
-0.182728
-0.154798
-0.12841
-0.104221
-0.0825739
-0.0636203
-0.0473602
-0.033604
-0.0222528
-0.0123714
-0.00272295
0.00594438
0.012747
-0.330789
-0.334543
-0.33641
-0.335608
-0.332044
-0.32445
-0.311917
-0.294167
-0.271582
-0.245398
-0.217152
-0.188339
-0.160283
-0.133943
-0.109927
-0.0884524
-0.0696261
-0.0533509
-0.03894
-0.0256123
-0.0141116
-0.00451159
0.00333475
0.00955435
-0.330967
-0.336996
-0.339528
-0.339177
-0.336156
-0.328899
-0.316395
-0.298287
-0.275241
-0.248623
-0.220042
-0.191104
-0.163161
-0.137104
-0.113462
-0.0922766
-0.0734985
-0.0568307
-0.0424187
-0.0303383
-0.0198968
-0.0107422
-0.00227912
0.00542249
-0.329068
-0.339341
-0.342189
-0.341554
-0.338337
-0.330843
-0.317732
-0.298791
-0.27495
-0.247685
-0.218735
-0.18978
-0.16222
-0.1368
-0.113901
-0.0932673
-0.0751756
-0.0597726
-0.0464065
-0.0347161
-0.0242636
-0.0147218
-0.00555557
0.00288435
-0.341353
-0.346023
-0.34584
-0.343447
-0.339056
-0.330344
-0.315711
-0.29534
-0.270257
-0.242155
-0.212874
-0.18418
-0.157486
-0.132913
-0.111084
-0.09199
-0.0749209
-0.0602856
-0.0475525
-0.0363307
-0.0263035
-0.0170617
-0.00781721
0.00131843
-0.572295
-0.587605
-0.584158
-0.561134
-0.526055
-0.474313
-0.569253
-0.585776
-0.58548
-0.567312
-0.53476
-0.49232
-0.566947
-0.582541
-0.585068
-0.571703
-0.546609
-0.514201
-0.567116
-0.581388
-0.585425
-0.576284
-0.556454
-0.527668
-0.569227
-0.582512
-0.587632
-0.581856
-0.565032
-0.537187
-0.57253
-0.584914
-0.59125
-0.587933
-0.573218
-0.546244
-0.576726
-0.587893
-0.595487
-0.594062
-0.581163
-0.555397
-0.581551
-0.590947
-0.599858
-0.599969
-0.588664
-0.56432
-0.586552
-0.593805
-0.604041
-0.605449
-0.595461
-0.572544
-0.591216
-0.596345
-0.607759
-0.610325
-0.601301
-0.579734
-0.595138
-0.598368
-0.610841
-0.614459
-0.605974
-0.585843
-0.598006
-0.599689
-0.61318
-0.617764
-0.609379
-0.590771
-0.599601
-0.600188
-0.614714
-0.620205
-0.611573
-0.594297
-0.599833
-0.599806
-0.615411
-0.621792
-0.612394
-0.596568
-0.598749
-0.598437
-0.61532
-0.62263
-0.611942
-0.597913
-0.596448
-0.596166
-0.614496
-0.622882
-0.610468
-0.598918
-0.593102
-0.593228
-0.613067
-0.622714
-0.608295
-0.600406
-0.588916
-0.590027
-0.611339
-0.622218
-0.605861
-0.603466
-0.584313
-0.586816
-0.609822
-0.621502
-0.603842
-0.609395
-0.579903
-0.583872
-0.608968
-0.620861
-0.603325
-0.619488
-0.576179
-0.58149
-0.608635
-0.620989
-0.605674
-0.634854
-0.573044
-0.579503
-0.608407
-0.622661
-0.612118
-0.656071
-0.569722
-0.577429
-0.60836
-0.626171
-0.624436
-0.68801
-0.566647
-0.57609
-0.609315
-0.633154
-0.645858
-0.770844
-0.405957
-0.361742
-0.351655
-0.345591
-0.338739
-0.327418
-0.310402
-0.287975
-0.261364
-0.232435
-0.203075
-0.175101
-0.149792
-0.126563
-0.105404
-0.0873925
-0.0717087
-0.057906
-0.0458206
-0.0351656
-0.0256059
-0.0165929
-0.00699625
0.00248567
-0.432331
-0.378635
-0.359426
-0.348252
-0.337244
-0.322211
-0.302132
-0.277265
-0.249084
-0.219562
-0.190589
-0.163858
-0.139421
-0.117127
-0.0976111
-0.0806078
-0.0657653
-0.0527494
-0.0412938
-0.0311164
-0.0218761
-0.0129233
-0.00294217
0.00596837
-0.449036
-0.39487
-0.368163
-0.350766
-0.334384
-0.315074
-0.29145
-0.263988
-0.234397
-0.204629
-0.176396
-0.150369
-0.126846
-0.106046
-0.0876946
-0.071612
-0.0575534
-0.0452176
-0.0343194
-0.0245854
-0.0157169
-0.00693292
0.00324115
0.0109083
-0.46495
-0.410256
-0.376537
-0.352328
-0.33028
-0.306275
-0.278864
-0.248867
-0.218114
-0.188329
-0.160622
-0.13553
-0.113155
-0.0933547
-0.0759341
-0.0606539
-0.047258
-0.0354801
-0.0250633
-0.0157622
-0.00730656
0.00127398
0.0115718
0.017471
-0.479865
-0.424117
-0.383632
-0.352751
-0.324988
-0.295997
-0.26475
-0.232425
-0.200748
-0.171019
-0.143942
-0.119716
-0.0982397
-0.0793084
-0.0626474
-0.0479948
-0.0351126
-0.0237735
-0.0137633
-0.00489459
0.00312472
0.0114499
0.0217843
0.0255328
-0.493455
-0.435888
-0.38913
-0.352018
-0.318381
-0.284235
-0.249302
-0.214951
-0.182565
-0.152991
-0.126508
-0.103039
-0.0823432
-0.0641072
-0.0480334
-0.0338664
-0.021392
-0.0104223
-0.000784235
0.0076579
0.0152037
0.0232101
0.033528
0.0349285
-0.505487
-0.445374
-0.392929
-0.349877
-0.310103
-0.27085
-0.232583
-0.196548
-0.163667
-0.134307
-0.108378
-0.0855781
-0.0655298
-0.047864
-0.0322662
-0.0184906
-0.0063502
0.00430546
0.0136033
0.0216388
0.0287023
0.0363743
0.0466691
0.0456721
-0.515599
-0.452569
-0.394976
-0.34578
-0.299714
-0.255669
-0.214552
-0.177199
-0.144005
-0.114925
-0.0895314
-0.0673356
-0.0478613
-0.0306957
-0.0155146
-0.00208327
0.00976292
0.0201444
0.0291432
0.0367959
0.0433871
0.0507464
0.0610728
0.0578087
-0.523546
-0.457614
-0.394924
-0.339077
-0.286848
-0.238545
-0.195096
-0.156782
-0.12347
-0.0947461
-0.069906
-0.048305
-0.0293913
-0.012721
0.00203821
0.0151178
0.0266724
0.036805
0.045557
0.0528845
0.0590576
0.0661521
0.0765855
0.0713671
-0.529276
-0.460615
-0.392108
-0.329197
-0.271236
-0.219355
-0.174041
-0.135084
-0.101922
-0.0736602
-0.049428
-0.0284671
-0.0101647
0.00595054
0.0202224
0.0328906
0.0441149
0.0539967
0.0625499
0.0696503
0.07551
0.0824054
0.0930137
0.086386
-0.532744
-0.461337
-0.385822
-0.315744
-0.252672
-0.197863
-0.15124
-0.11198
-0.0791547
-0.0515121
-0.0280062
-0.00779036
0.00979268
0.0252352
0.0388968
0.0510349
0.0618308
0.0714031
0.0797641
0.0867476
0.0924848
0.0992993
0.110109
0.103042
-0.533814
-0.459123
-0.375479
-0.298465
-0.231018
-0.173851
-0.126399
-0.0872857
-0.0550214
-0.0281724
-0.00554862
0.0137729
0.0304831
0.0450892
0.0579647
0.0693873
0.0795666
0.0886551
0.0967023
0.103568
0.109314
0.116006
0.126747
0.121893
-0.532239
-0.453167
-0.360665
-0.277165
-0.206039
-0.147192
-0.0993879
-0.0607388
-0.0293246
-0.00349824
0.0180493
0.0362983
0.0519593
0.0655434
0.0774264
0.0878919
0.0971603
0.105405
0.112724
0.11903
0.124224
0.129606
0.138658
0.143747
-0.527822
-0.442878
-0.341133
-0.251661
-0.177531
-0.117633
-0.0699817
-0.0321777
-0.00191669
0.0226339
0.0428956
0.0598884
0.074336
0.0867381
0.0974598
0.106772
0.114878
0.121941
0.128053
0.133088
0.136835
0.140824
0.150391
0.159981
-0.520431
-0.427837
-0.316615
-0.221688
-0.145233
-0.084919
-0.0379712
-0.00143659
0.0273139
0.0503179
0.0690895
0.0846456
0.0977589
0.108886
0.118384
0.126514
0.133473
0.139418
0.144409
0.148229
0.150826
0.155087
0.167611
0.172843
-0.509854
-0.407536
-0.286689
-0.186855
-0.108857
-0.0488151
-0.00317366
0.0315975
0.0584246
0.0795922
0.0966599
0.110671
0.122338
0.132135
0.140407
0.14741
0.153342
0.158362
0.162514
0.165549
0.167609
0.172349
0.186308
0.187997
-0.495683
-0.38118
-0.250786
-0.146681
-0.06806
-0.00911637
0.0344879
0.0669463
0.0914677
0.110484
0.125634
0.137946
0.148087
0.156517
0.163571
0.169495
0.174481
0.178682
0.182115
0.184504
0.186087
0.190889
0.205334
0.205133
-0.476996
-0.347426
-0.208089
-0.100582
-0.0225521
0.0342891
0.0750974
0.104618
0.126391
0.142946
0.155957
0.166417
0.174944
0.181966
0.1878
0.192675
0.196768
0.200214
0.203002
0.204819
0.205936
0.210568
0.225079
0.223781
-0.452153
-0.304276
-0.157575
-0.0480117
0.028018
0.0815193
0.118615
0.14454
0.163087
0.176852
0.187496
0.195953
0.20277
0.208336
0.212934
0.216768
0.219989
0.222706
0.224873
0.226139
0.22679
0.231145
0.245487
0.243474
-0.420173
-0.249347
-0.0981478
0.011668
0.0838439
0.132564
0.164913
0.186529
0.201353
0.211994
0.220047
0.22635
0.231365
0.235422
0.238762
0.241553
0.243912
0.245913
0.247474
0.248209
0.248413
0.252436
0.266412
0.263932
-0.383793
-0.179434
-0.0284021
0.0790815
0.145049
0.18727
0.213718
0.230266
0.240877
0.248075
0.253328
0.257344
0.260472
0.262971
0.265032
0.266776
0.268278
0.269574
0.270542
0.270772
0.270563
0.274226
0.28766
0.284881
-0.347356
-0.0868714
0.0544511
0.154825
0.211516
0.245228
0.264542
0.275275
0.281221
0.284704
0.28699
0.288611
0.289788
0.290697
0.291465
0.292163
0.292818
0.293421
0.293814
0.293569
0.292994
0.296291
0.309026
0.306066
-0.293017
0.045698
0.155051
0.238931
0.282454
0.305575
0.316602
0.320887
0.321823
0.321406
0.320619
0.319783
0.318976
0.318283
0.317762
0.317427
0.317251
0.31718
0.317022
0.316341
0.315454
0.318391
0.330286
0.32723
-0.12139
0.228919
0.275076
0.329562
0.355923
0.366818
0.368781
0.366248
0.362013
0.357634
0.353754
0.350457
0.347675
0.345398
0.343613
0.342272
0.341295
0.340579
0.339899
0.338827
0.337687
0.340275
0.351204
0.348109
1.21057
1.22743
1.24834
1.2876
1.30627
1.37522
1.21073
1.22607
1.2433
1.27178
1.25344
1.24074
1.21075
1.22397
1.23597
1.25365
1.22202
1.16819
1.21042
1.22174
1.22835
1.23608
1.19784
1.13339
1.20974
1.21948
1.2213
1.22079
1.18037
1.11755
1.20867
1.217
1.21476
1.20787
1.16739
1.10978
1.20722
1.21404
1.20852
1.19689
1.1573
1.10341
1.20544
1.21056
1.20247
1.18742
1.14946
1.09961
1.20344
1.20667
1.19661
1.17911
1.14281
1.09702
1.20131
1.20259
1.19111
1.17172
1.13681
1.09439
1.19914
1.19853
1.18601
1.16525
1.1312
1.09115
1.19703
1.19472
1.18142
1.15963
1.12581
1.08706
1.19505
1.19133
1.17746
1.15486
1.12057
1.08206
1.19322
1.18846
1.17417
1.15096
1.11551
1.0762
1.19159
1.18616
1.17157
1.148
1.1107
1.06962
1.19015
1.18444
1.16965
1.14609
1.10625
1.06258
1.1889
1.18324
1.16838
1.14539
1.10243
1.05559
1.18784
1.18251
1.16771
1.14612
1.09955
1.04966
1.18693
1.18217
1.16761
1.14861
1.09775
1.04699
1.1862
1.18209
1.168
1.15323
1.09725
1.05104
1.18563
1.18207
1.16891
1.15999
1.10258
1.06044
1.18521
1.18173
1.17057
1.16849
1.1117
1.08543
1.18492
1.18091
1.17236
1.17816
1.12999
1.14226
1.18477
1.18028
1.17395
1.18717
1.16628
1.22979
0.312022
0.411465
0.402109
0.421695
0.428814
0.426943
0.419722
0.410392
0.401061
0.392808
0.385913
0.380218
0.375517
0.371708
0.368709
0.366408
0.36467
0.363346
0.362183
0.360767
0.359428
0.361675
0.371528
0.368438
0.576826
0.556023
0.516165
0.508021
0.497663
0.483889
0.46807
0.452366
0.438253
0.426362
0.416625
0.408659
0.402141
0.396887
0.392747
0.38955
0.387107
0.385219
0.383614
0.3819
0.380409
0.382315
0.391006
0.387958
0.737006
0.672912
0.612651
0.584385
0.559993
0.536078
0.512733
0.491368
0.472969
0.457789
0.445459
0.435406
0.427215
0.420631
0.415447
0.411434
0.408348
0.405949
0.403944
0.401974
0.400363
0.401915
0.409384
0.406432
0.831193
0.759748
0.690764
0.649395
0.614586
0.582565
0.552971
0.526807
0.504719
0.486669
0.472046
0.46013
0.450439
0.442667
0.436551
0.431814
0.428158
0.4253
0.422939
0.420746
0.41903
0.420198
0.426413
0.423665
0.896966
0.823629
0.752798
0.703389
0.66117
0.622941
0.588373
0.558298
0.533153
0.512679
0.496088
0.482556
0.47156
0.462754
0.455834
0.450471
0.44632
0.44306
0.440384
0.438
0.43618
0.436923
0.441908
0.439546
0.943476
0.871929
0.801417
0.74725
0.699968
0.657163
0.618778
0.585631
0.558038
0.535586
0.517354
0.502463
0.490368
0.480693
0.473099
0.467215
0.462648
0.459045
0.4561
0.45356
0.451648
0.451964
0.455791
0.453896
0.97753
0.908036
0.838813
0.782044
0.731457
0.685406
0.644202
0.608728
0.57925
0.555237
0.535682
0.519687
0.506698
0.49632
0.488184
0.481879
0.476973
0.473085
0.469918
0.467255
0.465275
0.465202
0.46796
0.466482
1.00048
0.934146
0.866808
0.808833
0.756212
0.707963
0.664765
0.627607
0.596738
0.571547
0.550966
0.534109
0.520423
0.509501
0.500949
0.494321
0.489148
0.48503
0.481681
0.478924
0.476894
0.476471
0.478273
0.477177
1.01521
0.952172
0.886876
0.828562
0.774807
0.725164
0.680641
0.642335
0.610503
0.58447
0.563138
0.545647
0.531451
0.520135
0.511284
0.504422
0.499049
0.494753
0.491264
0.488439
0.486372
0.485648
0.48663
0.485872
1.02377
0.963592
0.900165
0.842021
0.787759
0.737333
0.692018
0.653007
0.620573
0.593993
0.572162
0.554248
0.539716
0.528147
0.519107
0.512092
0.506582
0.502158
0.498567
0.495698
0.493609
0.49264
0.49296
0.492484
1.02737
0.969422
0.907525
0.849826
0.795491
0.744746
0.699066
0.659719
0.62699
0.600126
0.578025
0.559885
0.54518
0.533486
0.524356
0.517265
0.511677
0.507173
0.50352
0.500629
0.49853
0.497381
0.497218
0.496959
1.02669
0.970309
0.909532
0.852419
0.798319
0.74762
0.701926
0.662555
0.629799
0.602889
0.580733
0.56255
0.547824
0.536127
0.526999
0.519902
0.514293
0.509759
0.506082
0.50319
0.501092
0.499833
0.499377
0.499264
1.02206
0.966611
0.906518
0.850067
0.796445
0.746097
0.700697
0.661583
0.629045
0.602312
0.580302
0.562252
0.547649
0.536064
0.527025
0.519989
0.514416
0.509901
0.506239
0.503366
0.501278
0.499982
0.499434
0.49939
1.01353
0.958428
0.89858
0.842867
0.789951
0.740247
0.695435
0.656847
0.624766
0.598426
0.576759
0.559012
0.544673
0.53331
0.524447
0.51754
0.512058
0.507611
0.504002
0.501167
0.499102
0.497846
0.497407
0.497357
1.00082
0.945609
0.885591
0.830753
0.778808
0.730067
0.686151
0.648371
0.616993
0.591267
0.570144
0.552871
0.538938
0.527907
0.519303
0.512593
0.507262
0.502934
0.499417
0.496638
0.494605
0.493462
0.493328
0.493195
0.983335
0.927738
0.867202
0.813498
0.762882
0.715487
0.672821
0.636163
0.605757
0.580882
0.560513
0.54389
0.530503
0.519915
0.511661
0.50522
0.500097
0.495936
0.492547
0.489844
0.487854
0.486892
0.487249
0.486959
0.960019
0.904095
0.842824
0.790716
0.741936
0.696378
0.655392
0.620218
0.59109
0.567326
0.547931
0.532142
0.519448
0.509424
0.501611
0.49551
0.490653
0.486708
0.483486
0.480878
0.478941
0.478224
0.479241
0.478725
0.929163
0.873584
0.811597
0.761863
0.715646
0.672568
0.63379
0.600534
0.573032
0.550667
0.532483
0.51772
0.505878
0.496537
0.489261
0.483575
0.479047
0.475369
0.47235
0.469858
0.467987
0.467569
0.469396
0.468593
0.887992
0.834633
0.77235
0.726245
0.683627
0.643868
0.607952
0.577125
0.551652
0.531004
0.514287
0.500755
0.489923
0.481393
0.47475
0.469558
0.465422
0.462061
0.459284
0.456931
0.455139
0.455064
0.457825
0.456691
0.832568
0.785146
0.72357
0.683047
0.645469
0.610112
0.57785
0.55005
0.527061
0.508479
0.4935
0.481409
0.47175
0.464157
0.458249
0.45363
0.449948
0.446952
0.444453
0.442263
0.440566
0.440875
0.44467
0.443162
0.759252
0.722515
0.663343
0.631382
0.600815
0.571209
0.54354
0.519439
0.499434
0.48329
0.470326
0.459884
0.45156
0.445027
0.43995
0.43598
0.432813
0.430229
0.428045
0.426046
0.424465
0.425201
0.430113
0.428146
0.658182
0.642957
0.589364
0.570412
0.549472
0.527232
0.505211
0.485538
0.469039
0.455708
0.445025
0.43643
0.429588
0.42423
0.420074
0.416825
0.414227
0.412098
0.410261
0.408476
0.407023
0.408191
0.41429
0.411903
0.490572
0.539798
0.499335
0.499715
0.491641
0.478551
0.463268
0.44875
0.436257
0.426086
0.417922
0.411345
0.406112
0.402026
0.398867
0.396397
0.394414
0.392771
0.391305
0.389749
0.388411
0.389959
0.397271
0.394679
0.229423
0.40406
0.393267
0.420464
0.428389
0.426027
0.418436
0.409694
0.401615
0.394872
0.389406
0.384975
0.381445
0.378702
0.376596
0.374951
0.373615
0.372483
0.371403
0.370087
0.368855
0.37073
0.379225
0.376592
)
;

boundaryField
{
    rotor
    {
        type            zeroGradient;
    }
    freestream
    {
        type            freestreamPressure;
        freestreamValue uniform 0;
        supersonic      false;
        value           nonuniform List<scalar> 
96
(
0.3049
0.280254
0.25586
0.232046
0.209121
0.187361
0.167003
0.148252
0.131289
0.116321
0.103771
0.0946872
0.081472
0.0672491
0.0562454
0.0472197
0.0394633
0.032711
0.0268067
0.0216308
0.0170946
0.0131427
0.00975305
0.0069364
0.00472675
0.00312987
0.00214264
0.00166247
0.0012504
0.000949039
0.000588332
0.000490182
0.000382753
0.000304623
0.000268306
9.5347e-05
1.06986e-05
0.00018037
0.000196268
9.26342e-05
0.000249849
0.000681846
0.000904445
0.0011457
0.000979197
0.000631303
0.00038165
0.000197229
0.000417772
0.00112161
0.0022814
0.00405016
0.00653706
0.00983854
0.0140977
0.0194758
0.0261354
0.034247
0.0440399
0.0559299
0.0705143
0.083578
0.0960097
0.110701
0.127578
0.146459
0.167091
0.189283
0.212802
0.237384
0.262725
0.288483
0.314281
0.339728
0.364427
0.38801
0.410182
0.430588
0.448827
0.464608
0.477674
0.487815
0.494875
0.498751
0.49939
0.496803
0.491043
0.482217
0.470484
0.456051
0.439176
0.420147
0.399262
0.376938
0.353577
0.329456
)
;
    }
    frontAndBack
    {
        type            empty;
    }
}


// ************************************************************************* //
