/*--------------------------------*- C++ -*----------------------------------*\
  =========                 |
  \\      /  F ield         | OpenFOAM: The Open Source CFD Toolbox
   \\    /   O peration     | Website:  https://openfoam.org
    \\  /    A nd           | Version:  11
     \\/     M anipulation  |
\*---------------------------------------------------------------------------*/
FoamFile
{
    format      ascii;
    class       surfaceScalarField;
    location    "0.12";
    object      phi;
}
// * * * * * * * * * * * * * * * * * * * * * * * * * * * * * * * * * * * * * //

dimensions      [0 3 -1 0 0 0 0];

internalField   nonuniform List<scalar> 
5640
(
1.11965e-06
-1.11965e-06
2.39468e-06
-1.27503e-06
3.32151e-06
-9.26829e-07
4.16744e-06
-8.45926e-07
4.06096e-06
1.06483e-07
3.7771e-06
2.8386e-07
1.39848e-06
-2.51814e-06
2.58491e-06
-2.46146e-06
3.40156e-06
-1.74348e-06
3.74147e-06
-1.18584e-06
2.6568e-06
1.19115e-06
7.66392e-06
-1.23001e-06
1.38601e-06
-3.90415e-06
2.4e-06
-3.47545e-06
3.01433e-06
-2.35781e-06
2.90684e-06
-1.07834e-06
1.26458e-06
2.8334e-06
1.12289e-05
-2.30039e-06
1.2824e-06
-5.18655e-06
2.11612e-06
-4.30917e-06
2.51115e-06
-2.75284e-06
2.00352e-06
-5.70712e-07
-7.97157e-09
4.84489e-06
1.41731e-05
-2.95222e-06
1.13346e-06
-6.32e-06
1.78138e-06
-4.95709e-06
1.95709e-06
-2.92855e-06
1.18857e-06
1.97811e-07
-7.19156e-07
6.75262e-06
1.66891e-05
-3.23513e-06
9.60038e-07
-7.28004e-06
1.43765e-06
-5.43471e-06
1.41095e-06
-2.90185e-06
4.97031e-07
1.11173e-06
-1.27701e-06
8.52666e-06
1.86754e-05
-3.26329e-06
7.80491e-07
-8.06053e-06
1.09816e-06
-5.75237e-06
9.0995e-07
-2.71365e-06
-5.31018e-08
2.07479e-06
-1.62441e-06
1.0098e-05
2.0166e-05
-3.11504e-06
6.00736e-07
-8.66127e-06
7.75083e-07
-5.92672e-06
4.73566e-07
-2.41213e-06
-4.66822e-07
3.01517e-06
-1.7813e-06
1.14124e-05
2.12146e-05
-2.82988e-06
4.23841e-07
-9.08511e-06
4.76539e-07
-5.97942e-06
1.06762e-07
-2.04235e-06
-7.4619e-07
3.86813e-06
-1.78287e-06
1.24491e-05
2.18707e-05
-2.43893e-06
2.52016e-07
-9.33713e-06
2.06953e-07
-5.93436e-06
-1.83508e-07
-1.65189e-06
-9.13505e-07
4.59812e-06
-1.66326e-06
1.31989e-05
2.2176e-05
-1.96861e-06
8.58221e-08
-9.42295e-06
-3.31251e-08
-5.81541e-06
-4.11688e-07
-1.27333e-06
-9.88885e-07
5.17532e-06
-1.45091e-06
1.36609e-05
2.21663e-05
-1.44124e-06
-6.88769e-08
-9.35407e-06
-2.43478e-07
-5.64081e-06
-5.85107e-07
-9.31699e-07
-9.92053e-07
5.58227e-06
-1.17181e-06
1.38407e-05
2.1871e-05
-8.76468e-07
-2.11773e-07
-9.1423e-06
-4.29028e-07
-5.42355e-06
-7.13994e-07
-6.46733e-07
-9.42235e-07
5.81051e-06
-8.49991e-07
1.37484e-05
2.13126e-05
-2.91648e-07
-3.47581e-07
-8.79472e-06
-5.94103e-07
-5.17703e-06
-8.09974e-07
-4.30862e-07
-8.58239e-07
5.85877e-06
-5.07623e-07
1.33978e-05
2.05112e-05
2.9377e-07
-4.75653e-07
-8.31906e-06
-7.44103e-07
-4.90858e-06
-8.85079e-07
-2.89885e-07
-7.58195e-07
5.73189e-06
-1.64362e-07
1.2804e-05
1.94799e-05
8.66996e-07
-5.96631e-07
-7.72243e-06
-8.84684e-07
-4.62053e-06
-9.51212e-07
-2.23357e-07
-6.5891e-07
5.43959e-06
1.58018e-07
1.1987e-05
1.82252e-05
1.41274e-06
-7.11048e-07
-7.01139e-06
-1.02136e-06
-4.31021e-06
-1.02002e-06
-2.24701e-07
-5.75866e-07
4.99543e-06
4.45311e-07
1.09659e-05
1.67561e-05
1.91439e-06
-8.18851e-07
-6.19253e-06
-1.1592e-06
-3.96987e-06
-1.10301e-06
-2.80888e-07
-5.24993e-07
4.41742e-06
6.81313e-07
9.75956e-06
1.50819e-05
2.35548e-06
-9.18972e-07
-5.27356e-06
-1.30246e-06
-3.58638e-06
-1.21172e-06
-3.71623e-07
-5.23497e-07
3.72919e-06
8.47702e-07
8.38836e-06
1.32091e-05
2.72056e-06
-1.00864e-06
-4.26493e-06
-1.45415e-06
-3.14086e-06
-1.35729e-06
-4.68484e-07
-5.88416e-07
2.96031e-06
9.26336e-07
6.87361e-06
1.11385e-05
2.99687e-06
-1.08238e-06
-3.18254e-06
-1.61551e-06
-2.60773e-06
-1.54993e-06
-5.34064e-07
-7.37519e-07
2.1479e-06
8.90169e-07
5.24592e-06
8.85437e-06
3.17434e-06
-1.13048e-06
-2.05207e-06
-1.78529e-06
-1.95292e-06
-1.79985e-06
-5.19501e-07
-9.91677e-07
1.33972e-06
7.01891e-07
3.55235e-06
6.29096e-06
3.26529e-06
-1.12046e-06
-9.31604e-07
-1.96739e-06
-1.10599e-06
-2.11423e-06
-3.72655e-07
-1.36623e-06
5.91719e-07
3.67746e-07
1.81838e-06
3.33593e-06
3.32278e-06
-9.31604e-07
-2.0376e-06
-2.41025e-06
-1.81853e-06
-1.55132e-10
3.33578e-06
-7.42949e-07
3.46784e-05
-3.36516e-05
-4.12826e-06
3.68066e-05
-3.34213e-05
-6.84431e-06
3.39599e-05
-3.12439e-05
-9.27159e-06
3.09534e-05
-2.85261e-05
-1.1496e-05
2.83125e-05
-2.60881e-05
-1.35878e-05
2.61473e-05
-2.40555e-05
-1.55958e-05
2.43856e-05
-2.23776e-05
-1.75501e-05
2.28875e-05
-2.09333e-05
-1.94681e-05
2.15482e-05
-1.96303e-05
-2.13599e-05
2.02997e-05
-1.84079e-05
-2.32309e-05
1.91014e-05
-1.72304e-05
-2.50837e-05
1.79328e-05
-1.608e-05
-2.69192e-05
1.67814e-05
-1.49459e-05
-2.87375e-05
1.56381e-05
-1.38199e-05
-3.05382e-05
1.44963e-05
-1.26956e-05
-3.23206e-05
1.33508e-05
-1.15684e-05
-3.40834e-05
1.21988e-05
-1.0436e-05
-3.5825e-05
1.10397e-05
-9.29806e-06
-3.75431e-05
9.87436e-06
-8.15628e-06
-3.92349e-05
8.70461e-06
-7.01275e-06
-4.08978e-05
7.53141e-06
-5.86853e-06
-4.25291e-05
6.35428e-06
-4.72298e-06
-4.41262e-05
5.17467e-06
-3.57761e-06
4.06672e-06
-2.49212e-06
-2.4524e-06
3.59008e-05
-4.46972e-06
3.88239e-05
-6.61433e-06
3.61045e-05
-8.712e-06
3.30511e-05
-1.06965e-05
3.0297e-05
-1.25931e-05
2.8044e-05
-1.44302e-05
2.62227e-05
-1.62279e-05
2.46851e-05
-1.79984e-05
2.33188e-05
-1.97492e-05
2.20506e-05
-2.14844e-05
2.08366e-05
-2.32056e-05
1.9654e-05
-2.49133e-05
1.84891e-05
-2.66073e-05
1.73321e-05
-2.82869e-05
1.61759e-05
-2.99513e-05
1.50151e-05
-3.15991e-05
1.38466e-05
-3.32286e-05
1.26692e-05
-3.48375e-05
1.14833e-05
-3.64229e-05
1.029e-05
-3.79818e-05
9.09031e-06
-3.95113e-05
7.8837e-06
-4.10081e-05
6.67151e-06
5.53884e-06
-3.32264e-06
3.6923e-05
-4.66746e-06
4.01687e-05
-6.34258e-06
3.77796e-05
-8.10259e-06
3.48111e-05
-9.83422e-06
3.20286e-05
-1.15252e-05
2.97349e-05
-1.31824e-05
2.788e-05
-1.48154e-05
2.63181e-05
-1.6431e-05
2.49343e-05
-1.80337e-05
2.36533e-05
-1.96259e-05
2.24289e-05
-2.12087e-05
2.12367e-05
-2.27818e-05
2.00622e-05
-2.43446e-05
1.8895e-05
-2.58965e-05
1.77277e-05
-2.74362e-05
1.65548e-05
-2.89625e-05
1.53729e-05
-3.04735e-05
1.41803e-05
-3.1967e-05
1.29767e-05
-3.344e-05
1.1763e-05
-3.48893e-05
1.05396e-05
-3.63115e-05
9.3059e-06
-3.77029e-05
8.06297e-06
6.90248e-06
-3.73525e-06
3.77061e-05
-4.65138e-06
4.10849e-05
-5.95783e-06
3.90861e-05
-7.40772e-06
3.6261e-05
-8.89125e-06
3.35121e-05
-1.03748e-05
3.12185e-05
-1.18484e-05
2.93535e-05
-1.33119e-05
2.77816e-05
-1.47673e-05
2.63897e-05
-1.62164e-05
2.51024e-05
-1.76602e-05
2.38727e-05
-1.90987e-05
2.26753e-05
-2.05314e-05
2.14949e-05
-2.19573e-05
2.03209e-05
-2.33755e-05
1.91459e-05
-2.47847e-05
1.79641e-05
-2.61837e-05
1.67719e-05
-2.75705e-05
1.55671e-05
-2.8943e-05
1.43492e-05
-3.02981e-05
1.31181e-05
-3.16325e-05
1.1874e-05
-3.29424e-05
1.06159e-05
-3.42237e-05
9.34421e-06
8.15227e-06
-3.84167e-06
3.83126e-05
-4.44114e-06
4.16843e-05
-5.43989e-06
4.00848e-05
-6.61159e-06
3.74327e-05
-7.85913e-06
3.47597e-05
-9.13803e-06
3.24974e-05
-1.04268e-05
3.06423e-05
-1.17182e-05
2.9073e-05
-1.301e-05
2.76815e-05
-1.43014e-05
2.63938e-05
-1.55924e-05
2.51636e-05
-1.68821e-05
2.3965e-05
-1.81696e-05
2.27824e-05
-1.94537e-05
2.1605e-05
-2.07332e-05
2.04254e-05
-2.2007e-05
1.92378e-05
-2.32735e-05
1.80384e-05
-2.4531e-05
1.68247e-05
-2.57774e-05
1.55955e-05
-2.70096e-05
1.43504e-05
-2.82243e-05
1.30886e-05
-2.94174e-05
1.1809e-05
-3.05838e-05
1.05106e-05
9.28351e-06
-3.70284e-06
3.87522e-05
-4.06224e-06
4.20437e-05
-4.79023e-06
4.08128e-05
-5.71094e-06
3.83534e-05
-6.73577e-06
3.57845e-05
-7.81441e-06
3.3576e-05
-8.91904e-06
3.17469e-05
-1.0037e-05
3.0191e-05
-1.11628e-05
2.88072e-05
-1.22937e-05
2.75248e-05
-1.34285e-05
2.62984e-05
-1.45658e-05
2.51023e-05
-1.57043e-05
2.39209e-05
-1.68426e-05
2.27433e-05
-1.79794e-05
2.15622e-05
-1.91133e-05
2.03718e-05
-2.0243e-05
1.91681e-05
-2.13668e-05
1.79485e-05
-2.24826e-05
1.67113e-05
-2.35875e-05
1.54552e-05
-2.4678e-05
1.41792e-05
-2.57499e-05
1.28809e-05
-2.67974e-05
1.15581e-05
1.02922e-05
-3.37146e-06
3.90086e-05
-3.53348e-06
4.22058e-05
-4.01767e-06
4.1297e-05
-4.70813e-06
3.90438e-05
-5.52231e-06
3.65987e-05
-6.40601e-06
3.44597e-05
-7.32795e-06
3.26689e-05
-8.27213e-06
3.11352e-05
-9.23053e-06
2.97656e-05
-1.0199e-05
2.84932e-05
-1.11753e-05
2.72747e-05
-1.21576e-05
2.60846e-05
-1.31442e-05
2.49075e-05
-1.41335e-05
2.37327e-05
-1.51241e-05
2.25528e-05
-1.61147e-05
2.13623e-05
-1.71039e-05
2.01573e-05
-1.80901e-05
1.89347e-05
-1.90712e-05
1.76924e-05
-2.00447e-05
1.64287e-05
-2.1007e-05
1.51415e-05
-2.19538e-05
1.38277e-05
-2.28785e-05
1.24828e-05
1.11751e-05
-2.88908e-06
3.90678e-05
-2.8746e-06
4.21913e-05
-3.13452e-06
4.15569e-05
-3.60925e-06
3.95186e-05
-4.22253e-06
3.7212e-05
-4.91651e-06
3.51537e-05
-5.65782e-06
3.34102e-05
-6.42849e-06
3.19058e-05
-7.21889e-06
3.0556e-05
-8.02374e-06
2.92981e-05
-8.84005e-06
2.8091e-05
-9.66557e-06
2.69101e-05
-1.04983e-05
2.57402e-05
-1.13364e-05
2.45708e-05
-1.21785e-05
2.33948e-05
-1.30229e-05
2.22068e-05
-1.38685e-05
2.10028e-05
-1.47136e-05
1.97798e-05
-1.55565e-05
1.85353e-05
-1.63947e-05
1.72669e-05
-1.72252e-05
1.5972e-05
-1.80435e-05
1.4646e-05
-1.88421e-05
1.32814e-05
1.19291e-05
-2.28888e-06
3.89177e-05
-2.10359e-06
4.2006e-05
-2.15501e-06
4.16083e-05
-2.42328e-06
3.97868e-05
-2.84229e-06
3.7631e-05
-3.35083e-06
3.56623e-05
-3.91382e-06
3.39732e-05
-4.51173e-06
3.25038e-05
-5.1341e-06
3.11784e-05
-5.77492e-06
2.99389e-05
-6.43063e-06
2.87467e-05
-7.09856e-06
2.75781e-05
-7.77643e-06
2.6418e-05
-8.46224e-06
2.52566e-05
-9.15424e-06
2.40868e-05
-9.85086e-06
2.29034e-05
-1.05506e-05
2.17026e-05
-1.12521e-05
2.04812e-05
-1.19534e-05
1.92366e-05
-1.26527e-05
1.79662e-05
-1.33473e-05
1.66666e-05
-1.40336e-05
1.53323e-05
-1.4703e-05
1.39508e-05
1.25514e-05
-1.60161e-06
3.85507e-05
-1.23767e-06
4.16421e-05
-1.08932e-06
4.146e-05
-1.15911e-06
3.98566e-05
-1.38852e-06
3.78604e-05
-1.71465e-06
3.59884e-05
-2.10167e-06
3.43602e-05
-2.52786e-06
3.29299e-05
-2.98269e-06
3.16332e-05
-3.45976e-06
3.0416e-05
-3.95507e-06
2.9242e-05
-4.46559e-06
2.80886e-05
-4.98879e-06
2.69412e-05
-5.52241e-06
2.57903e-05
-6.06446e-06
2.46289e-05
-6.61308e-06
2.34521e-05
-7.16653e-06
2.22561e-05
-7.72302e-06
2.10377e-05
-8.2807e-06
1.97943e-05
-8.83754e-06
1.8523e-05
-9.39168e-06
1.72208e-05
-9.94118e-06
1.58818e-05
-1.04784e-05
1.4488e-05
1.30378e-05
-8.49739e-07
3.79592e-05
-2.9517e-07
4.10875e-05
4.80548e-08
4.11168e-05
1.71017e-07
3.97337e-05
1.29064e-07
3.79023e-05
-1.8391e-08
3.61358e-05
-2.27903e-07
3.45697e-05
-4.83149e-07
3.31852e-05
-7.71371e-07
3.19214e-05
-1.08556e-06
3.07302e-05
-1.4214e-06
2.95778e-05
-1.77565e-06
2.84428e-05
-2.14557e-06
2.73112e-05
-2.52874e-06
2.61734e-05
-2.92291e-06
2.5023e-05
-3.3259e-06
2.38551e-05
-3.73549e-06
2.26656e-05
-4.14931e-06
2.14516e-05
-4.56468e-06
2.02097e-05
-4.97836e-06
1.89367e-05
-5.38706e-06
1.76295e-05
-5.79075e-06
1.62854e-05
-6.19416e-06
1.48914e-05
1.33815e-05
-4.22382e-08
3.7125e-05
7.07144e-07
4.03381e-05
1.24801e-06
4.05759e-05
1.56429e-06
3.94174e-05
1.70859e-06
3.7758e-05
1.74154e-06
3.61029e-05
1.70272e-06
3.46085e-05
1.6162e-06
3.32717e-05
1.49327e-06
3.20444e-05
1.34066e-06
3.08828e-05
1.16279e-06
2.97557e-05
9.62955e-07
2.86427e-05
7.43877e-07
2.75302e-05
5.07969e-07
2.64093e-05
2.57473e-07
2.52735e-05
-5.37995e-09
2.41179e-05
-2.7818e-07
2.29384e-05
-5.58113e-07
2.17315e-05
-8.41659e-07
2.04932e-05
-1.12388e-06
1.92189e-05
-1.39618e-06
1.79018e-05
-1.64264e-06
1.65319e-05
-1.85281e-06
1.51015e-05
1.36309e-05
7.73351e-07
3.606e-05
1.74558e-06
3.93659e-05
2.4888e-06
3.98327e-05
3.00309e-06
3.89031e-05
3.33417e-06
3.74269e-05
3.54614e-06
3.58909e-05
3.68111e-06
3.44736e-05
3.76315e-06
3.31897e-05
3.80455e-06
3.2003e-05
3.81228e-06
3.0875e-05
3.79081e-06
2.97772e-05
3.74334e-06
2.86901e-05
3.67243e-06
2.76012e-05
3.58017e-06
2.65016e-05
3.46841e-06
2.53853e-05
3.33892e-06
2.42474e-05
3.19356e-06
2.30838e-05
3.03455e-06
2.18905e-05
2.86487e-06
2.06629e-05
2.68884e-06
1.9395e-05
2.51367e-06
1.80769e-05
2.35074e-06
1.66948e-05
2.21163e-06
1.52407e-05
1.37452e-05
1.61203e-06
3.47418e-05
2.80649e-06
3.81714e-05
3.7599e-06
3.88793e-05
4.47504e-06
3.81879e-05
4.99755e-06
3.69044e-05
5.3912e-06
3.54973e-05
5.70044e-06
3.41643e-05
5.95089e-06
3.29392e-05
6.15601e-06
3.17978e-05
6.3232e-06
3.07078e-05
6.45698e-06
2.96434e-05
6.56048e-06
2.85866e-05
6.63602e-06
2.75256e-05
6.68542e-06
2.64522e-05
6.71021e-06
2.53605e-05
6.71189e-06
2.42457e-05
6.69233e-06
2.31034e-05
6.65426e-06
2.19286e-05
6.60194e-06
2.07152e-05
6.54182e-06
1.94551e-05
6.48231e-06
1.81364e-05
6.43182e-06
1.67453e-05
6.40094e-06
1.52715e-05
1.37091e-05
2.44474e-06
3.3164e-05
3.87223e-06
3.67439e-05
5.04582e-06
3.77057e-05
5.96905e-06
3.72647e-05
6.68921e-06
3.61843e-05
7.26801e-06
3.49185e-05
7.75309e-06
3.36792e-05
8.1725e-06
3.25198e-05
8.54135e-06
3.1429e-05
8.86771e-06
3.03815e-05
9.15633e-06
2.93548e-05
9.41037e-06
2.83326e-05
9.63207e-06
2.73039e-05
9.82316e-06
2.62611e-05
9.98513e-06
2.51985e-05
1.01196e-05
2.41113e-05
1.02287e-05
2.29942e-05
1.03159e-05
2.18414e-05
1.03863e-05
2.06448e-05
1.04471e-05
1.93943e-05
1.05069e-05
1.80766e-05
1.05761e-05
1.66762e-05
1.06693e-05
1.51784e-05
1.35694e-05
3.25252e-06
3.13242e-05
4.92408e-06
3.50724e-05
6.32962e-06
3.63001e-05
7.4716e-06
3.61227e-05
8.39706e-06
3.52588e-05
9.16682e-06
3.41487e-05
9.83095e-06
3.30151e-05
1.04208e-05
3.19299e-05
1.09542e-05
3.08957e-05
1.14402e-05
2.98955e-05
1.1884e-05
2.8911e-05
1.22889e-05
2.79276e-05
1.26574e-05
2.69354e-05
1.29913e-05
2.59272e-05
1.32922e-05
2.48977e-05
1.35618e-05
2.38417e-05
1.38026e-05
2.27535e-05
1.40181e-05
2.16259e-05
1.42134e-05
2.04495e-05
1.43953e-05
1.92124e-05
1.45719e-05
1.79e-05
1.47533e-05
1.64947e-05
1.49544e-05
1.49773e-05
1.33272e-05
4.01593e-06
2.92227e-05
5.94215e-06
3.31461e-05
7.59286e-06
3.46494e-05
8.96643e-06
3.47492e-05
1.01078e-05
3.41175e-05
1.10771e-05
3.31794e-05
1.19255e-05
3.21666e-05
1.26885e-05
3.1167e-05
1.3388e-05
3.01961e-05
1.40348e-05
2.92487e-05
1.46347e-05
2.83111e-05
1.51915e-05
2.73708e-05
1.57079e-05
2.6419e-05
1.61859e-05
2.54492e-05
1.66273e-05
2.44563e-05
1.70339e-05
2.34351e-05
1.74079e-05
2.23794e-05
1.77526e-05
2.12811e-05
1.80724e-05
2.01297e-05
1.8373e-05
1.89118e-05
1.86616e-05
1.76113e-05
1.89483e-05
1.62081e-05
1.92487e-05
1.46769e-05
1.29886e-05
4.71301e-06
2.68652e-05
6.90249e-06
3.09567e-05
8.81332e-06
3.27386e-05
1.04344e-05
3.31281e-05
1.18052e-05
3.27467e-05
1.29854e-05
3.19992e-05
1.40277e-05
3.11243e-05
1.49676e-05
3.0227e-05
1.58362e-05
2.93276e-05
1.66457e-05
2.84392e-05
1.7403e-05
2.75538e-05
1.81128e-05
2.6661e-05
1.87783e-05
2.57535e-05
1.94018e-05
2.48257e-05
1.9985e-05
2.38731e-05
2.05297e-05
2.28905e-05
2.10376e-05
2.18715e-05
2.15114e-05
2.08073e-05
2.19544e-05
1.96867e-05
2.2371e-05
1.84952e-05
2.27674e-05
1.7215e-05
2.31532e-05
1.58223e-05
2.3545e-05
1.4285e-05
1.25622e-05
5.32059e-06
2.42651e-05
7.77727e-06
2.85e-05
9.96393e-06
3.05519e-05
1.1852e-05
3.12401e-05
1.34702e-05
3.11285e-05
1.48742e-05
3.05952e-05
1.61216e-05
2.98769e-05
1.72507e-05
2.90979e-05
1.8292e-05
2.82863e-05
1.92668e-05
2.74643e-05
2.01832e-05
2.66374e-05
2.10472e-05
2.5797e-05
2.1863e-05
2.49377e-05
2.2633e-05
2.40557e-05
2.33592e-05
2.31469e-05
2.4043e-05
2.22067e-05
2.46856e-05
2.12289e-05
2.52885e-05
2.02044e-05
2.58539e-05
1.91213e-05
2.6385e-05
1.79642e-05
2.68862e-05
1.67137e-05
2.73661e-05
1.53424e-05
2.78418e-05
1.38094e-05
1.20586e-05
5.81846e-06
2.14435e-05
8.53689e-06
2.57815e-05
1.10118e-05
2.8077e-05
1.31887e-05
2.90632e-05
1.50783e-05
2.9239e-05
1.67257e-05
2.89477e-05
1.81896e-05
2.84131e-05
1.95212e-05
2.77663e-05
2.07483e-05
2.70592e-05
2.18915e-05
2.63211e-05
2.29685e-05
2.55604e-05
2.39881e-05
2.47774e-05
2.49553e-05
2.39706e-05
2.58731e-05
2.31379e-05
2.67435e-05
2.22765e-05
2.75676e-05
2.13826e-05
2.83462e-05
2.04503e-05
2.90794e-05
1.94711e-05
2.97682e-05
1.84326e-05
3.04139e-05
1.73185e-05
3.10192e-05
1.61084e-05
3.15902e-05
1.47714e-05
3.21427e-05
1.32569e-05
1.14888e-05
6.19757e-06
1.84203e-05
9.15802e-06
2.28211e-05
1.19216e-05
2.53134e-05
1.4406e-05
2.65787e-05
1.65953e-05
2.70496e-05
1.85181e-05
2.70249e-05
2.02242e-05
2.6707e-05
2.17684e-05
2.62221e-05
2.31878e-05
2.56399e-05
2.45075e-05
2.50014e-05
2.575e-05
2.43179e-05
2.69278e-05
2.35997e-05
2.8048e-05
2.28504e-05
2.91149e-05
2.20709e-05
3.01309e-05
2.12605e-05
3.10972e-05
2.04163e-05
3.20139e-05
1.95336e-05
3.28803e-05
1.86047e-05
3.36954e-05
1.76175e-05
3.44585e-05
1.65554e-05
3.51699e-05
1.5397e-05
3.58318e-05
1.41094e-05
3.64566e-05
1.26322e-05
1.08636e-05
6.4762e-06
1.52094e-05
9.63878e-06
1.96585e-05
1.26661e-05
2.22861e-05
1.54612e-05
2.37837e-05
1.79752e-05
2.45355e-05
2.02075e-05
2.47927e-05
2.21894e-05
2.47251e-05
2.39706e-05
2.44408e-05
2.55968e-05
2.40137e-05
2.71048e-05
2.34935e-05
2.85192e-05
2.29034e-05
2.98582e-05
2.22607e-05
3.1133e-05
2.15756e-05
3.23502e-05
2.08537e-05
3.35134e-05
2.00973e-05
3.46241e-05
1.93056e-05
3.56823e-05
1.84754e-05
3.66863e-05
1.76007e-05
3.76335e-05
1.66704e-05
3.85202e-05
1.56687e-05
3.93435e-05
1.45737e-05
4.0101e-05
1.33519e-05
4.07976e-05
1.19355e-05
1.01914e-05
6.6846e-06
1.18476e-05
9.99693e-06
1.63462e-05
1.32365e-05
1.90465e-05
1.63178e-05
2.07024e-05
1.91626e-05
2.16908e-05
2.17345e-05
2.22208e-05
2.40351e-05
2.24245e-05
2.60951e-05
2.23808e-05
2.796e-05
2.21488e-05
2.96722e-05
2.17812e-05
3.12668e-05
2.13089e-05
3.27703e-05
2.07571e-05
3.42007e-05
2.01452e-05
3.55686e-05
1.94859e-05
3.68799e-05
1.8786e-05
3.81373e-05
1.80482e-05
3.9341e-05
1.72717e-05
4.04889e-05
1.64527e-05
4.15768e-05
1.55825e-05
4.25981e-05
1.46474e-05
4.3545e-05
1.36268e-05
4.44088e-05
1.24881e-05
4.51844e-05
1.116e-05
9.47522e-06
6.75435e-06
8.429e-06
1.02175e-05
1.2883e-05
1.36256e-05
1.56385e-05
1.69598e-05
1.73682e-05
2.01225e-05
1.8528e-05
2.30463e-05
1.92969e-05
2.57004e-05
1.97704e-05
2.80872e-05
1.9994e-05
3.02373e-05
1.99986e-05
3.21863e-05
1.98322e-05
3.39771e-05
1.95181e-05
3.56512e-05
1.90831e-05
3.72378e-05
1.85585e-05
3.8755e-05
1.79687e-05
4.02136e-05
1.73274e-05
4.16188e-05
1.6643e-05
4.29718e-05
1.59188e-05
4.42706e-05
1.51539e-05
4.551e-05
1.43432e-05
4.66812e-05
1.34762e-05
4.77713e-05
1.25366e-05
4.87632e-05
1.14963e-05
4.96367e-05
1.02865e-05
8.70694e-06
1.69906e-09
-1.69906e-09
1.53928e-07
-1.52229e-07
4.6928e-07
-3.15352e-07
9.79911e-07
-5.10631e-07
1.62955e-06
-6.4964e-07
-7.35736e-07
2.36529e-06
4.76532e-08
-4.93522e-08
2.18999e-07
-3.23575e-07
5.14093e-07
-6.10445e-07
9.20718e-07
-9.17257e-07
1.40433e-06
-1.13325e-06
-1.13638e-06
1.80498e-06
7.12293e-08
-1.20582e-07
2.33367e-07
-4.85713e-07
4.83309e-07
-8.60387e-07
7.93193e-07
-1.22714e-06
1.13335e-06
-1.47341e-06
-1.43831e-06
1.43527e-06
8.39575e-08
-2.04539e-07
2.26105e-07
-6.2786e-07
4.23577e-07
-1.05786e-06
6.48113e-07
-1.45168e-06
8.84867e-07
-1.71016e-06
-1.69461e-06
1.14117e-06
8.94433e-08
-2.93982e-07
2.03901e-07
-7.42318e-07
3.47883e-07
-1.20184e-06
4.9792e-07
-1.60171e-06
6.54069e-07
-1.86631e-06
-1.8982e-06
8.57657e-07
8.43373e-08
-3.7832e-07
1.69557e-07
-8.27538e-07
2.63099e-07
-1.29538e-06
3.47524e-07
-1.68614e-06
4.33978e-07
-1.95276e-06
-2.03817e-06
5.73952e-07
7.03728e-08
-4.48692e-07
1.27108e-07
-8.84274e-07
1.74344e-07
-1.34262e-06
2.00575e-07
-1.71237e-06
2.2343e-07
-1.97562e-06
-2.10872e-06
2.93976e-07
5.06298e-08
-4.99322e-07
8.04148e-08
-9.14059e-07
8.59831e-08
-1.34819e-06
6.06657e-08
-1.68705e-06
2.48775e-08
-1.93983e-06
-2.10955e-06
2.57084e-08
2.78686e-08
-5.27191e-07
3.27359e-08
-9.18926e-07
1.67645e-09
-1.31713e-06
-6.8594e-08
-1.61678e-06
-1.57127e-07
-1.8513e-06
-2.04302e-06
-2.2366e-07
4.33789e-09
-5.31529e-07
-1.31879e-08
-9.014e-07
-7.54026e-08
-1.25491e-06
-1.83742e-07
-1.50844e-06
-3.18402e-07
-1.71664e-06
-1.91683e-06
-4.44586e-07
-1.82339e-08
-5.13295e-07
-5.50776e-08
-8.64557e-07
-1.42714e-07
-1.16728e-06
-2.81725e-07
-1.36943e-06
-4.54424e-07
-1.54394e-06
-1.7407e-06
-6.30551e-07
-3.83904e-08
-4.74904e-07
-9.12852e-08
-8.11662e-07
-1.98271e-07
-1.06029e-06
-3.60085e-07
-1.20762e-06
-5.61474e-07
-1.34255e-06
-1.52617e-06
-7.76007e-07
-5.51592e-08
-4.19745e-07
-1.20538e-07
-7.46283e-07
-2.40735e-07
-9.40094e-07
-4.17159e-07
-1.03119e-06
-6.37097e-07
-1.12261e-06
-1.28608e-06
-8.77183e-07
-6.78228e-08
-3.51922e-07
-1.42061e-07
-6.72045e-07
-2.69415e-07
-8.1274e-07
-4.52156e-07
-8.48453e-07
-6.80116e-07
-8.9465e-07
-1.03408e-06
-9.32118e-07
-7.58991e-08
-2.76023e-07
-1.55509e-07
-5.92435e-07
-2.84261e-07
-6.83988e-07
-4.65179e-07
-6.67535e-07
-6.90596e-07
-6.69233e-07
-7.84163e-07
-9.40515e-07
-7.90767e-08
-1.96947e-07
-1.60925e-07
-5.10586e-07
-2.85831e-07
-5.59082e-07
-4.57224e-07
-4.96142e-07
-6.6989e-07
-4.56567e-07
-5.50111e-07
-9.03942e-07
-7.71611e-08
-1.19785e-07
-1.58685e-07
-4.29062e-07
-2.7525e-07
-4.42517e-07
-4.30161e-07
-3.4123e-07
-6.20615e-07
-2.66114e-07
-3.44992e-07
-8.25733e-07
-7.00124e-08
-4.9773e-08
-1.49422e-07
-3.49652e-07
-2.54144e-07
-3.37796e-07
-3.86702e-07
-2.08672e-07
-5.46655e-07
-1.06161e-07
-1.80414e-07
-7.11233e-07
-5.74316e-08
7.65855e-09
-1.33946e-07
-2.73138e-07
-2.2454e-07
-2.47202e-07
-3.30358e-07
-1.02855e-07
-4.53634e-07
1.71156e-08
-6.57642e-08
-5.68284e-07
-3.88828e-08
4.65413e-08
-1.13153e-07
-1.98868e-07
-1.88709e-07
-1.71646e-07
-2.65175e-07
-2.63887e-08
-3.48608e-07
1.00549e-07
-7.06706e-09
-4.07305e-07
-1.92785e-08
6.58199e-08
-8.80439e-08
-1.30102e-07
-1.48893e-07
-1.10797e-07
-1.95248e-07
1.99669e-08
-2.39708e-07
1.45008e-07
-3.96459e-09
-2.4281e-07
-1.74098e-09
6.75608e-08
-5.94677e-08
-7.23757e-08
-1.06787e-07
-6.34773e-08
-1.2371e-07
3.689e-08
-1.31922e-07
1.5322e-07
-3.86161e-08
-9.72707e-08
1.97242e-08
4.78366e-08
-2.5728e-08
-2.69235e-08
-6.20842e-08
-2.71212e-08
-5.21419e-08
2.69478e-08
-1.07955e-08
1.11874e-07
-5.25291e-08
3.11746e-09
4.78366e-08
2.09132e-08
-6.20802e-09
2.07397e-08
1.32613e-07
8.00843e-08
6.00935e-06
4.78494e-06
9.71604e-06
9.17635e-06
1.34591e-05
1.18954e-05
1.71466e-05
1.36807e-05
2.07021e-05
1.49726e-05
2.40397e-05
1.59594e-05
2.71034e-05
1.67067e-05
2.98723e-05
1.72251e-05
3.23592e-05
1.75118e-05
3.45982e-05
1.75932e-05
3.66202e-05
1.74961e-05
3.84775e-05
1.72258e-05
4.02225e-05
1.68136e-05
4.18851e-05
1.63061e-05
4.34866e-05
1.57259e-05
4.50375e-05
1.50921e-05
4.6541e-05
1.44152e-05
4.79961e-05
1.36988e-05
4.93977e-05
1.29416e-05
5.07358e-05
1.2138e-05
5.1995e-05
1.12774e-05
5.31511e-05
1.03402e-05
5.4165e-05
9.27257e-06
7.85572e-06
4.482e-06
2.10791e-06
8.13129e-06
5.52706e-06
1.21009e-05
7.92578e-06
1.61663e-05
9.61529e-06
2.02279e-05
1.0911e-05
2.41437e-05
1.20436e-05
2.77804e-05
1.307e-05
3.10827e-05
1.39228e-05
3.40196e-05
1.45749e-05
3.66363e-05
1.49765e-05
3.90005e-05
1.51319e-05
4.11393e-05
1.5087e-05
4.30836e-05
1.48693e-05
4.48988e-05
1.44908e-05
4.66413e-05
1.39834e-05
4.83339e-05
1.33995e-05
4.99854e-05
1.27638e-05
5.15982e-05
1.2086e-05
5.31688e-05
1.13711e-05
5.46877e-05
1.06191e-05
5.61393e-05
9.82576e-06
5.74989e-05
8.98058e-06
5.87261e-05
8.0454e-06
6.85431e-06
3.24314e-06
3.00045e-07
6.17283e-06
2.59737e-06
9.74029e-06
4.35832e-06
1.36906e-05
5.66494e-06
1.78969e-05
6.70469e-06
2.22791e-05
7.6614e-06
2.66778e-05
8.6712e-06
3.08369e-05
9.76378e-06
3.45764e-05
1.08354e-05
3.78491e-05
1.17037e-05
4.06968e-05
1.22842e-05
4.32033e-05
1.25805e-05
4.54705e-05
1.26021e-05
4.75641e-05
1.23972e-05
4.95157e-05
1.20318e-05
5.13717e-05
1.15435e-05
5.31744e-05
1.09611e-05
5.49443e-05
1.03161e-05
5.66857e-05
9.62972e-06
5.83924e-05
8.91242e-06
6.00501e-05
8.16807e-06
6.16334e-05
7.39721e-06
6.31347e-05
6.54415e-06
5.59616e-06
2.37398e-06
-9.3277e-07
4.51769e-06
4.53656e-07
7.33859e-06
1.53743e-06
1.0672e-05
2.33152e-06
1.44168e-05
2.95993e-06
1.85168e-05
3.56141e-06
2.29476e-05
4.2404e-06
2.76323e-05
5.07906e-06
3.23492e-05
6.11848e-06
3.67628e-05
7.29005e-06
4.06435e-05
8.40355e-06
4.39647e-05
9.25926e-06
4.68165e-05
9.75035e-06
4.9311e-05
9.90275e-06
5.15635e-05
9.77921e-06
5.36776e-05
9.42943e-06
5.57117e-05
8.92693e-06
5.76973e-05
8.33049e-06
5.96497e-05
7.67735e-06
6.15722e-05
6.98988e-06
6.3459e-05
6.28128e-06
6.5294e-05
5.5622e-06
6.70564e-05
4.78178e-06
4.04349e-06
1.71863e-06
-1.79375e-06
3.24448e-06
-1.07219e-06
5.34275e-06
-5.60836e-07
7.92655e-06
-2.52286e-07
1.09376e-05
-5.10886e-08
1.43476e-05
1.51328e-07
1.81392e-05
4.4885e-07
2.23033e-05
9.14971e-07
2.68347e-05
1.58703e-06
3.16562e-05
2.4686e-06
3.65374e-05
3.52234e-06
4.11516e-05
4.64509e-06
4.52408e-05
5.66115e-06
4.87484e-05
6.39514e-06
5.1771e-05
6.75655e-06
5.44441e-05
6.75639e-06
5.6891e-05
6.48001e-06
5.91987e-05
6.02282e-06
6.14231e-05
5.45297e-06
6.35966e-05
4.81634e-06
6.57348e-05
4.1431e-06
6.78381e-05
3.4589e-06
6.98618e-05
2.75807e-06
2.1187e-06
1.16515e-06
-2.38495e-06
2.23191e-06
-2.13894e-06
3.73966e-06
-2.06859e-06
5.64465e-06
-2.15728e-06
7.91581e-06
-2.32225e-06
1.05414e-05
-2.47424e-06
1.35203e-05
-2.53004e-06
1.68596e-05
-2.42438e-06
2.05686e-05
-2.12199e-06
2.46461e-05
-1.6089e-06
2.90638e-05
-8.95325e-07
3.37469e-05
-3.80238e-08
3.85277e-05
8.80339e-07
4.31696e-05
1.7533e-06
4.74608e-05
2.46532e-06
5.12967e-05
2.9205e-06
5.47005e-05
3.07619e-06
5.77662e-05
2.95712e-06
6.05917e-05
2.62748e-06
6.32544e-05
2.15365e-06
6.58077e-05
1.58977e-06
6.82913e-05
9.75328e-07
7.0703e-05
3.46409e-07
-1.76733e-07
6.6922e-07
-2.76019e-06
1.38388e-06
-2.85361e-06
2.4261e-06
-3.1108e-06
3.77196e-06
-3.50314e-06
5.40399e-06
-3.95428e-06
7.31556e-06
-4.38581e-06
9.51245e-06
-4.72694e-06
1.20083e-05
-4.92019e-06
1.48171e-05
-4.93084e-06
1.79568e-05
-4.74862e-06
2.14443e-05
-4.38284e-06
2.52671e-05
-3.86079e-06
2.93782e-05
-3.23071e-06
3.36999e-05
-2.56841e-06
3.81245e-05
-1.95928e-06
4.25206e-05
-1.47561e-06
4.67604e-05
-1.16361e-06
5.07596e-05
-1.04213e-06
5.44903e-05
-1.10314e-06
5.79631e-05
-1.31923e-06
6.12092e-05
-1.65628e-06
6.42648e-05
-2.08033e-06
6.71982e-05
-2.58696e-06
-3.11024e-06
2.19562e-07
-2.95405e-06
6.55197e-07
-3.28924e-06
1.3306e-06
-3.78621e-06
2.23263e-06
-4.40517e-06
3.35118e-06
-5.07282e-06
4.68297e-06
-5.7176e-06
6.23366e-06
-6.27764e-06
8.01802e-06
-6.70454e-06
1.00558e-05
-6.96862e-06
1.23678e-05
-7.0606e-06
1.49757e-05
-6.99077e-06
1.78966e-05
-6.78165e-06
2.11323e-05
-6.46647e-06
2.46577e-05
-6.09375e-06
2.84192e-05
-5.72083e-06
3.23439e-05
-5.40029e-06
3.63508e-05
-5.17047e-06
4.03614e-05
-5.05273e-06
4.43103e-05
-5.05206e-06
4.81521e-05
-5.16106e-06
5.1863e-05
-5.36718e-06
5.54402e-05
-5.65747e-06
5.89017e-05
-6.04849e-06
-6.56918e-06
-1.82189e-07
-2.99552e-06
3.00378e-08
-3.50147e-06
4.17909e-07
-4.17408e-06
9.76954e-07
-4.96421e-06
1.70352e-06
-5.79939e-06
2.59863e-06
-6.61271e-06
3.66992e-06
-7.34893e-06
4.93226e-06
-7.96688e-06
6.40608e-06
-8.44244e-06
8.11429e-06
-8.76881e-06
1.00783e-05
-8.95478e-06
1.23164e-05
-9.01975e-06
1.48401e-05
-8.99019e-06
1.76454e-05
-8.89902e-06
2.07082e-05
-8.7836e-06
2.39873e-05
-8.67942e-06
2.74319e-05
-8.61509e-06
3.0989e-05
-8.60985e-06
3.46108e-05
-8.67382e-06
3.82601e-05
-8.81033e-06
4.19135e-05
-9.02056e-06
4.55654e-05
-9.3094e-06
4.92174e-05
-9.70049e-06
-1.0246e-05
-5.29985e-07
-2.91012e-06
-4.95006e-07
-3.53645e-06
-3.27938e-07
-4.34115e-06
-2.54645e-08
-5.26669e-06
4.15835e-07
-6.24069e-06
1.00263e-06
-7.19951e-06
1.74615e-06
-8.09245e-06
2.66243e-06
-8.88316e-06
3.7708e-06
-9.55082e-06
5.0916e-06
-1.00896e-05
6.6429e-06
-1.05061e-05
8.43844e-06
-1.08153e-05
1.04862e-05
-1.1038e-05
1.27852e-05
-1.1198e-05
1.53225e-05
-1.13209e-05
1.80745e-05
-1.14314e-05
2.10105e-05
-1.1551e-05
2.40973e-05
-1.16967e-05
2.73041e-05
-1.18807e-05
3.06066e-05
-1.21128e-05
3.39901e-05
-1.24041e-05
3.7451e-05
-1.27703e-05
4.09835e-05
-1.32329e-05
-1.38049e-05
-8.17308e-07
-2.72336e-06
-9.18141e-07
-3.43562e-06
-9.14721e-07
-4.34457e-06
-7.95656e-07
-5.38575e-06
-5.50366e-07
-6.48598e-06
-1.66726e-07
-7.58315e-06
3.70247e-07
-8.62943e-06
1.0776e-06
-9.59051e-06
1.97291e-06
-1.04461e-05
3.07239e-06
-1.11891e-05
4.38879e-06
-1.18225e-05
5.93019e-06
-1.23567e-05
7.69922e-06
-1.2807e-05
9.69238e-06
-1.31911e-05
1.18994e-05
-1.35279e-05
1.4304e-05
-1.3836e-05
1.68854e-05
-1.41324e-05
1.96206e-05
-1.44319e-05
2.24869e-05
-1.4747e-05
2.54642e-05
-1.50902e-05
2.85357e-05
-1.54756e-05
3.1687e-05
-1.59216e-05
3.48977e-05
-1.64437e-05
-1.70313e-05
-1.03868e-06
-2.46069e-06
-1.23713e-06
-3.23716e-06
-1.34657e-06
-4.23513e-06
-1.34821e-06
-5.38412e-06
-1.22498e-06
-6.6092e-06
-9.59819e-07
-7.84831e-06
-5.34958e-07
-9.05429e-06
6.64198e-08
-1.01919e-05
8.59907e-07
-1.12396e-05
1.85773e-06
-1.21869e-05
3.06776e-06
-1.30325e-05
4.4931e-06
-1.3782e-05
6.13206e-06
-1.4446e-05
7.97821e-06
-1.50373e-05
1.00205e-05
-1.55702e-05
1.2244e-05
-1.60595e-05
1.46302e-05
-1.65187e-05
1.71586e-05
-1.69603e-05
1.98064e-05
-1.73948e-05
2.25494e-05
-1.78332e-05
2.53611e-05
-1.82872e-05
2.82107e-05
-1.87712e-05
3.10675e-05
-1.93004e-05
-1.98878e-05
-1.19013e-06
-2.14775e-06
-1.4501e-06
-2.97719e-06
-1.62596e-06
-4.05927e-06
-1.69223e-06
-5.31784e-06
-1.62649e-06
-6.67494e-06
-1.40839e-06
-8.06642e-06
-1.01923e-06
-9.44345e-06
-4.41445e-07
-1.07697e-05
3.38237e-07
-1.20193e-05
1.32846e-06
-1.31771e-05
2.53287e-06
-1.42369e-05
3.95041e-06
-1.51996e-05
5.57583e-06
-1.60714e-05
7.40021e-06
-1.68617e-05
9.41147e-06
-1.75815e-05
1.15947e-05
-1.82427e-05
1.39324e-05
-1.88563e-05
1.6404e-05
-1.94319e-05
1.89863e-05
-1.99772e-05
2.16524e-05
-2.04993e-05
2.43701e-05
-2.10049e-05
2.71016e-05
-2.15028e-05
2.98131e-05
-2.20119e-05
-2.25864e-05
-1.26972e-06
-1.81015e-06
-1.55555e-06
-2.69135e-06
-1.75181e-06
-3.86302e-06
-1.83022e-06
-5.23942e-06
-1.76596e-06
-6.7392e-06
-1.53322e-06
-8.29915e-06
-1.1111e-06
-9.86557e-06
-4.83389e-07
-1.13974e-05
3.61187e-07
-1.28639e-05
1.42823e-06
-1.42442e-05
2.71794e-06
-1.55266e-05
4.22574e-06
-1.67074e-05
5.94333e-06
-1.7789e-05
7.85929e-06
-1.87776e-05
9.95974e-06
-1.96819e-05
1.22293e-05
-2.05122e-05
1.46513e-05
-2.12783e-05
1.72079e-05
-2.19885e-05
1.98798e-05
-2.26491e-05
2.26453e-05
-2.32648e-05
2.54789e-05
-2.38385e-05
2.83501e-05
-2.4374e-05
3.12276e-05
-2.48894e-05
-2.54507e-05
-1.27756e-06
-1.47311e-06
-1.55565e-06
-2.41326e-06
-1.73296e-06
-3.6857e-06
-1.77579e-06
-5.1966e-06
-1.65378e-06
-6.86121e-06
-1.34152e-06
-8.61141e-06
-8.17227e-07
-1.03899e-05
-6.48424e-08