/*--------------------------------*- C++ -*----------------------------------*\
  =========                 |
  \\      /  F ield         | OpenFOAM: The Open Source CFD Toolbox
   \\    /   O peration     | Website:  https://openfoam.org
    \\  /    A nd           | Version:  11
     \\/     M anipulation  |
\*---------------------------------------------------------------------------*/
FoamFile
{
    format      ascii;
    class       volScalarField;
    location    "1.36";
    object      epsilon;
}
// * * * * * * * * * * * * * * * * * * * * * * * * * * * * * * * * * * * * * //

dimensions      [0 2 -3 0 0 0 0];

internalField   nonuniform List<scalar> 
2880
(
2.01854
2.42973
2.92964
3.00037
2.78702
2.59324
0.879142
1.03097
1.28197
1.41114
1.45145
1.58103
0.235207
0.776238
0.984763
1.09212
1.16543
1.31224
0.257459
0.7338
0.899979
0.994542
1.07773
1.21422
0.272468
0.760292
0.880546
0.967079
1.05484
1.18231
1.19918
0.832089
0.88775
0.967285
1.05819
1.18032
1.36076
0.885888
0.906891
0.981259
1.07448
1.19291
1.50154
0.926289
0.929181
1.00135
1.09603
1.21103
1.61875
0.955706
0.950992
1.02368
1.11875
1.22976
1.71108
0.976449
0.971372
1.04618
1.1405
1.24644
1.7785
0.990929
0.990459
1.06796
1.1604
1.25989
1.82228
1.00157
1.00886
1.08897
1.17843
1.27003
1.83994
1.00959
1.0272
1.10991
1.19533
1.27767
1.82852
1.01507
1.04636
1.13195
1.21248
1.28446
1.78452
1.0181
1.06754
1.15678
1.23195
1.29288
1.70818
1.01918
1.09235
1.18674
1.25669
1.30632
1.60076
1.01922
1.12308
1.22522
1.29088
1.3295
1.46458
1.01968
1.16311
1.27726
1.34077
1.36927
1.30235
1.02295
1.21777
1.35053
1.41629
1.43683
1.1858
1.03359
1.29595
1.45882
1.53524
1.55176
0.264383
1.06245
1.41598
1.62985
1.73342
1.75409
0.240552
1.15156
1.62513
1.93105
2.09516
2.14271
0.886876
1.41136
2.10068
2.59178
2.88491
3.03693
1.96926
2.58518
3.94873
4.95935
5.47103
6.01508
5.65058
4.67641
3.08045
1.96109
1.23384
0.775951
0.492717
0.320544
0.217531
0.156244
0.119431
0.0967425
0.0822076
0.0724554
0.0655757
0.0604828
0.0565637
0.0535081
0.0512231
0.0497839
0.0493845
0.0499638
0.0519075
0.0563143
3.31089
4.22741
3.6865
2.65359
1.79533
1.17974
0.775653
0.519728
0.35935
0.25944
0.196918
0.157238
0.131442
0.114089
0.101889
0.0928897
0.0859487
0.0804096
0.0759373
0.072459
0.0701065
0.0692385
0.0701229
0.0739588
2.135
3.42025
3.60856
3.29549
2.62519
1.91967
1.33725
0.922596
0.651672
0.474046
0.357717
0.280645
0.228683
0.192883
0.167562
0.149204
0.135662
0.12542
0.117153
0.110288
0.104692
0.100518
0.0988503
0.101234
1.68082
2.64017
3.30115
3.41921
3.2567
2.86019
2.3225
1.79672
1.33687
0.989218
0.750709
0.582925
0.463582
0.378581
0.317357
0.272528
0.238881
0.212849
0.192472
0.17645
0.163853
0.153876
0.145656
0.144875
1.50236
2.15977
2.81407
3.25486
3.41981
3.3755
3.20421
2.87369
2.48899
2.08858
1.70668
1.37267
1.09553
0.884239
0.723163
0.598589
0.501489
0.425691
0.366783
0.320948
0.284803
0.256423
0.233048
0.219571
1.42931
1.90336
2.44433
2.92962
3.28835
3.48939
3.55796
3.5149
3.39554
3.17853
2.91403
2.62092
2.31502
2.00446
1.70823
1.43767
1.19832
0.993839
0.825774
0.690766
0.582805
0.497371
0.429741
0.37449
1.40222
1.76774
2.20471
2.6464
3.03931
3.35398
3.57298
3.70983
3.76326
3.74399
3.67386
3.53714
3.35328
3.13146
2.87993
2.6086
2.32679
2.04349
1.76699
1.50606
1.27056
1.06356
0.895297
0.733016
1.39447
1.69158
2.04941
2.42971
2.79695
3.12614
3.4014
3.61818
3.77338
3.87031
3.90918
3.896
3.84272
3.73866
3.5919
3.41153
3.20184
2.96699
2.71185
2.44186
2.16636
1.89194
1.64146
1.37954
1.39385
1.64303
1.93961
2.26005
2.58049
2.88201
3.15117
3.38023
3.56478
3.7034
3.79539
3.84237
3.84525
3.81286
3.73978
3.62804
3.48729
3.32132
3.1347
2.93247
2.71658
2.49079
2.26976
2.05135
1.39394
1.60519
1.85125
2.11634
2.38359
2.63878
2.87114
3.07348
3.24142
3.37269
3.46655
3.52389
3.54677
3.53907
3.50448
3.44005
3.35173
3.2423
3.11345
2.96725
2.80907
2.64723
2.49743
2.37656
1.39135
1.56962
1.77146
1.98538
2.19874
2.40067
2.58278
2.73944
2.8673
2.96479
3.03198
3.0704
3.08344
3.0742
3.04582
2.99999
2.94042
2.86988
2.79067
2.70525
2.61724
2.53249
2.45787
2.39104
1.38505
1.53298
1.69485
1.86177
2.02383
2.17265
2.30209
2.40837
2.48987
2.54654
2.5793
2.59168
2.58848
2.57231
2.54542
2.50999
2.47024
2.42847
2.38577
2.34271
2.30042
2.26116
2.22557
2.17829
1.37565
1.49515
1.62097
1.74593
1.86212
1.96329
2.04552
2.10728
2.14902
2.17185
2.18043
2.17856
2.17064
2.16104
2.15425
2.15256
2.15359
2.15571
2.15647
2.15431
2.14787
2.1362
2.11534
2.07408
1.36498
1.45817
1.55247
1.642
1.72053
1.78382
1.83034
1.86075
1.87715
1.88461
1.88945
1.89876
1.91674
1.94276
1.9752
2.01103
2.04615
2.07656
2.10156
2.12139
2.13465
2.14062
2.13867
2.14201
1.35602
1.42558
1.49403
1.55639
1.60789
1.64616
1.67175
1.68809
1.70126
1.7181
1.74463
1.78318
1.83095
1.88591
1.94364
1.99905
2.04784
2.08712
2.11496
2.12957
2.13636
2.13443
2.13265
2.16817
1.35245
1.40213
1.45168
1.49676
1.53382
1.56231
1.58508
1.60744
1.63539
1.67481
1.72935
1.79936
1.88154
1.96746
2.04649
2.10813
2.14395
2.15012
2.12341
2.07709
2.01173
1.93245
1.85972
1.87769
1.35921
1.39354
1.43257
1.47184
1.50855
1.54334
1.58037
1.62562
1.68531
1.76414
1.86272
1.9757
2.09142
2.19383
2.26659
2.29639
2.27194
2.18458
2.06727
1.92249
1.75963
1.58801
1.41656
1.35215
1.38277
1.40682
1.44507
1.49147
1.54332
1.60217
1.6725
1.7597
1.86815
1.99837
2.14401
2.29062
2.41774
2.50373
2.5314
2.48124
2.34007
2.16109
1.94704
1.71928
1.49587
1.28865
1.10307
1.01556
1.43205
1.45091
1.49948
1.56793
1.65264
1.7545
1.87655
2.02149
2.18824
2.36891
2.5468
2.6981
2.798
2.82595
2.7488
2.56598
2.33799
2.06442
1.77776
1.5067
1.26987
1.07433
0.92151
0.854676
1.51992
1.53848
1.61109
1.71931
1.85607
2.01955
2.20877
2.4194
2.64042
2.85228
3.02806
3.13797
3.16309
3.05256
2.82841
2.55339
2.2232
1.87908
1.55802
1.28515
1.06948
0.906265
0.790016
0.746445
1.66545
1.68593
1.79897
1.96773
2.17735
2.41916
2.68305
2.95273
3.2038
3.40583
3.52694
3.51831
3.37168
3.10483
2.77134
2.3773
1.97185
1.59934
1.28829
1.0482
0.871305
0.745368
0.664375
0.639393
1.89875
1.91541
2.0879
2.34072
2.64245
2.9705
3.29932
3.59683
3.82551
3.9513
3.892
3.69623
3.37837
2.9661
2.49646
2.02633
1.60568
1.26403
1.00701
0.822029
0.692036
0.604005
0.549923
0.535786
2.26514
2.25349
2.50539
2.86472
3.26755
3.66834
4.02124
4.28017
4.39115
4.27342
4.01363
3.622
3.11735
2.56471
2.03219
1.57334
1.21408
0.952146
0.767814
0.638971
0.549356
0.487983
0.452292
0.445614
2.8146
2.71936
3.0708
3.54878
4.03629
4.45817
4.75059
4.82522
4.65451
4.31879
3.82353
3.21591
2.58069
1.99568
1.51362
1.15128
0.894701
0.716113
0.589721
0.498745
0.433493
0.389542
0.366379
0.364328
1.88285
2.35274
3.90328
5.32324
6.10084
26.4226
0.862959
1.35958
2.17687
3.00015
3.84916
5.44503
0.237391
1.14917
1.75841
2.39485
3.10297
3.80004
0.263281
1.08196
1.59878
2.15898
2.8012
3.48617
0.281007
1.05751
1.51921
2.05185
2.69991
3.47016
1.25829
1.0538
1.4731
2.00202
2.68946
3.57516
1.38037
1.05427
1.44238
1.97917
2.72208
3.73512
1.48322
1.05512
1.41793
1.9673
2.77341
3.92119
1.56147
1.05402
1.39435
1.95661
2.82914
4.12014
1.6121
1.04968
1.36814
1.9405
2.8794
4.32459
1.63341
1.04076
1.33695
1.91424
2.91676
4.52398
1.62861
1.02659
1.2993
1.87455
2.93616
4.7197
1.59507
1.00799
1.25441
1.81922
2.93348
4.90868
1.54211
0.986449
1.2021
1.74711
2.90531
5.09071
1.47281
0.960687
1.14318
1.65849
2.84781
5.26415
1.38646
0.926979
1.07848
1.55525
2.75935
5.42482
1.28395
0.879931
1.00857
1.44034
2.63872
5.56311
1.19033
0.812158
0.93481
1.31805
2.48428
5.662
0.275736
0.709482
0.862501
1.19453
2.29542
5.69529
0.265324
0.642847
0.80324
1.07654
2.07481
5.63322
0.248964
0.615641
0.77322
0.981036
1.8349
5.45852
0.226814
0.651058
0.801363
0.94211
1.60958
5.1843
0.846778
0.887677
0.998377
1.05615
1.49063
4.87379
1.97823
2.17763
2.25288
2.0002
2.07653
4.69668
3.50476
3.29511
3.77565
4.36063
4.87406
5.21582
5.26192
5.04734
4.61921
3.99626
3.27685
2.56283
1.93789
1.44706
1.09208
0.845569
0.673167
0.548298
0.455278
0.386524
0.337889
0.307062
0.292988
0.29365
3.63269
3.90788
4.56867
5.21079
5.6409
5.69376
5.44315
4.91642
4.15976
3.32666
2.54058
1.88669
1.39554
1.05032
0.811561
0.641622
0.515409
0.41942
0.347189
0.295199
0.260298
0.240069
0.232783
0.234925
3.84071
4.54141
5.36248
5.96438
6.09928
5.84305
5.23928
4.34784
3.40086
2.54667
1.86762
1.37508
1.03361
0.795131
0.621816
0.491029
0.390977
0.31542
0.260522
0.22288
0.199202
0.186905
0.184085
0.187082
4.1307
5.16505
6.06075
6.42701
6.2338
5.62075
4.60362
3.53991
2.61241
1.90047
1.39528
1.04518
0.796932
0.613925
0.475435
0.370156
0.291212
0.233707
0.193743
0.167667
0.152366
0.145475
0.145259
0.14861
4.46747
5.74133
6.57456
6.56883
6.06055
4.97863
3.7856
2.76568
2.00054
1.46301
1.08809
0.819028
0.619803
0.470089
0.357778
0.274597
0.214316
0.172041
0.143835
0.126284
0.116761
0.113336
0.11428
0.117879
4.82851
6.23615
6.79533
6.49501
5.50275
4.17661
3.03512
2.18461
1.58782
1.16878
0.866392
0.643206
0.477408
0.354983
0.265727
0.201745
0.156916
0.12653
0.106965
0.0953374
0.0895809
0.0882018
0.089694
0.0932164
5.20042
6.62776
6.82186
6.14569
4.7581
3.45842
2.47702
1.78587
1.29878
0.94733
0.689703
0.500712
0.363404
0.265055
0.195683
0.147547
0.114824
0.0932555
0.0797639
0.0720895
0.0686814
0.0684167
0.0701099
0.0733191
5.5775
6.88681
6.6912
5.58113
4.08491
2.91442
2.08323
1.49659
1.07453
0.7675
0.544951
0.385769
0.273831
0.19639
0.143542
0.107913
0.0842585
0.0689709
0.0596051
0.0544762
0.0524573
0.0526854
0.0543957
0.0571561
5.95863
6.98958
6.44934
4.97278
3.55399
2.52144
1.7909
1.26733
0.889189
0.617955
0.426676
0.294525
0.204938
0.145057
0.10537
0.0792098
0.0621127
0.0511783
0.0445453
0.0409926
0.0397213
0.0400913
0.0416514
0.0439743
6.34435
7.0065
6.12928
4.47049
3.16106
2.22459
1.55535
1.07455
0.732325
0.49372
0.331426
0.223532
0.152994
0.107276
0.0776803
0.0584747
0.0460198
0.0380597
0.0332076
0.0305946
0.0296633
0.0299798
0.0312501
0.033158
6.72758
6.98042
5.77497
4.10072
2.86583
1.98528
1.35505
0.908456
0.599426
0.39178
0.256097
0.169296
0.114399
0.0797191
0.0576558
0.0434662
0.034268
0.0283348
0.024638
0.0225599
0.0217141
0.0218404
0.0227394
0.0242489
7.08364
6.9565
5.4568
3.81192
2.62699
1.77967
1.17917
0.764511
0.487847
0.30944
0.197511
0.128441
0.085986
0.0596949
0.0431586
0.0325589
0.0256492
0.0211123
0.0181773
0.0163925
0.0154896
0.0153191
0.0157965
0.016887
7.40104
6.95797
5.19848
3.58718
2.42544
1.59763
1.02348
0.640537
0.395403
0.243934
0.152558
0.0979536
0.0651597
0.0451396
0.0326274
0.0245994
0.0193163
0.015768
0.0133633
0.0117554
0.0107422
0.010218
0.0101894
0.0107624
7.69462
6.96637
5.01712
3.41003
2.2486
1.43345
0.885614
0.534763
0.319812
0.192477
0.11839
0.075311
0.049897
0.0345271
0.0249449
0.0187746
0.0146702
0.0118516
0.00985514
0.00839909
0.00730736
0.00646341
0.00578532
0.00547767
7.9889
7.00836
4.90122
3.26385
2.08796
1.28403
0.764114
0.44546
0.258707
0.15243
0.09255
0.058501
0.0386742
0.0267496
0.0193151
0.0145062
0.0112776
0.00902326
0.00737711
0.00610595
0.00505034
0.00409231
0.00310766
0.00169163
8.30866
7.089
4.84194
3.13788
1.93893
1.14787
0.657818
0.370816
0.209756
0.121431
0.0730222
0.045975
0.0303664
0.0210054
0.0151624
0.0113687
0.00880696
0.00700453
0.00567521
0.00463468
0.00375349
0.00293712
0.00211943
0.0011052
8.67897
7.2304
4.81882
3.02257
1.79851
1.02393
0.565461
0.308917
0.170769
0.0974723
0.0582157
0.0365709
0.0241517
0.0167114
0.0120605
0.00903298
0.00698295
0.00553748
0.00447109
0.0036386
0.00293742
0.00229232
0.0016544
0.000928147
9.12876
7.44524
4.81445
2.91097
1.66476
0.911322
0.485686
0.25789
0.139806
0.0789196
0.0469146
0.0294361
0.0194401
0.0134505
0.00970078
0.00725555
0.00559751
0.00442757
0.0035646
0.00289181
0.00232696
0.00181282
0.00132052
0.000798292
9.69908
7.73631
4.81635
2.79798
1.53627
0.809151
0.417078
0.215987
0.115226
0.0644826
0.0382106
0.0239568
0.0158161
0.0109337
0.0078729
0.00587501
0.00452008
0.00356477
0.0028615
0.00231519
0.00185961
0.00145141
0.0010737
0.000697412
10.4533
8.10312
4.81593
2.67859
1.4117
0.716446
0.3583
0.181612
0.0956466
0.0531651
0.0314364
0.0196957
0.0129899
0.00896308
0.00643635
0.00478734
0.00367063
0.0028856
0.00231046
0.001867
0.00150154
0.0011806
0.000893115
0.000620372
11.4869
8.53369
4.78933
2.54635
1.28955
0.632468
0.307933
0.153272
0.0799139
0.0442147
0.0261064
0.0163415
0.0107582
0.00740139
0.00529489
0.00392227
0.00299585
0.00234808
0.00187719
0.00151805
0.00122652
0.00097606
0.000758558
0.000561024
12.9439
8.93127
4.7096
2.39472
1.16899
0.556075
0.264516
0.129758
0.0671745
0.0370676
0.0218679
0.0136716
0.00897706
0.00615198
0.00438087
0.00323035
0.00245795
0.00192205
0.00153658
0.00124665
0.00101546
0.000821418
0.000657923
0.000515356
15.059
9.20925
4.54427
2.21874
1.04917
0.486082
0.226893
0.110142
0.056788
0.0313056
0.0184642
0.011526
0.00754308
0.00514537
0.00364534
0.00267544
0.00202899
0.00158491
0.00126963
0.00103637
0.00085407
0.000704739
0.000582636
0.000480305
18.2608
9.29218
4.25116
2.01433
0.929354
0.421792
0.194227
0.0937205
0.0482712
0.026626
0.0157087
0.00978807
0.0063809
0.00433044
0.00305183
0.00223012
0.00168729
0.0013188
0.00106115
0.000874087
0.000731086
0.000616925
0.000526378
0.000453457
2.91055
8.83987
11.5247
12.4719
47.0497
55.572
1.10517
4.11508
5.6658
6.94309
10.8716
17.9198
1.60856
3.16239
4.21804
5.31607
7.25996
10.439
2.24624
2.83444
3.61718
4.56337
5.927
7.54657
2.8575
2.7076
3.30264
4.11997
5.15051
6.08862
3.41174
2.66236
3.11669
3.82081
4.62239
5.19775
3.8908
2.65285
2.99625
3.60289
4.23644
4.59102
4.28507
2.6562
2.91201
3.43712
3.94425
4.15276
4.59077
2.66001
2.84896
3.30856
3.71951
3.82881
4.80773
2.65774
2.79911
3.20903
3.5477
3.58986
4.93793
2.64639
2.7586
3.13362
3.4213
3.4189
4.98437
2.62546
2.72579
3.0803
3.33634
3.30617
4.95108
2.59588
2.7005
3.04908
3.29164
3.24844
4.84204
2.55941
2.68363
3.0394
3.28489
3.24291
4.6596
2.51808
2.6762
3.05293
3.3189
3.29351
4.40056
2.47345
2.68032
3.09223
3.39812
3.40802
4.0645
2.4284
2.69955
3.16097
3.53048
3.60107
3.6534
2.38784
2.73972
3.26628
3.72717
3.90038
3.17208
2.36066
2.81144
3.42118
4.00722
4.35867
2.62987
2.36136
2.93537
3.65034
4.40583
5.08459
2.04316
2.42245
3.15668
4.00527
4.99383
6.3313
1.43924
2.62605
3.59396
4.62219
5.91968
8.83591
1.00951
3.28738
4.67644
5.97328
7.51822
15.2917
2.36803
6.70276
9.15362
10.7636
10.9944
45.9661
20.9577
8.25261
3.7926
1.78404
0.81126
0.363225
0.165975
0.0799696
0.0412627
0.0228042
0.0134637
0.00837181
0.0054346
0.00366884
0.0025725
0.00187306
0.00141575
0.00110949
0.000899016
0.000749399
0.000637786
0.000551095
0.00048445
0.000432917
12.4121
6.47384
3.25689
1.54819
0.699516
0.310968
0.14179
0.0684919
0.0354876
0.0196725
0.011626
0.00721287
0.0046619
0.00313112
0.00218559
0.00158735
0.00120064
0.000945524
0.000773515
0.000654091
0.000567379
0.000501987
0.000453312
0.00041722
8.8346
5.28135
2.78512
1.33038
0.598853
0.265567
0.12137
0.0589612
0.0307279
0.0171049
0.0101175
0.00626212
0.00403026
0.00269426
0.00187385
0.0013594
0.0010309
0.000817671
0.000676888
0.000581664
0.000514569
0.000465561
0.000430283
0.000405257
6.89739
4.4112
2.38125
1.13823
0.511396
0.22705
0.104355
0.051092
0.0268094
0.0149968
0.00887682
0.00548139
0.00351409
0.00233995
0.00162339
0.00117822
0.000897586
0.000718524
0.000602955
0.000526997
0.000475231
0.000438719
0.000413356
0.000396203
5.659
3.73944
2.04129
0.974284
0.437569
0.195008
0.0903366
0.0446282
0.0235886
0.0132621
0.00785545
0.00484055
0.003093
0.00205339
0.00142293
0.00103491
0.000793472
0.000642161
0.000546826
0.000486074
0.000446163
0.000419103
0.000401041
0.000389447
4.80314
3.21735
1.76053
0.83795
0.376575
0.168742
0.078883
0.03934
0.0209454
0.0118349
0.00701542
0.00431559
0.00275054
0.00182256
0.00126327
0.000922209
0.000712754
0.000583864
0.000504647
0.000455763
0.000424897
0.000404911
0.000392219
0.000384528
4.18343
2.80871
1.53183
0.72661
0.326958
0.147441
0.0695843
0.0350284
0.0187808
0.010663
0.00632637
0.00388717
0.00247335
0.00163768
0.00113695
0.000834281
0.000650767
0.000539871
0.000473376
0.000433631
0.000409537
0.000394743
0.000386008
0.000381016
3.72254
2.48823
1.34765
0.636925
0.287062
0.130308
0.0620748
0.0315259
0.0170139
0.0097042
0.00576388
0.0035397
0.00225067
0.00149089
0.00103801
0.000766471
0.000603814
0.000507215
0.000450637
0.000417829
0.000398725
0.000387651
0.000381664
0.000378521
3.37642
2.23804
1.20107
0.565562
0.255303
0.116626
0.056042
0.028694
0.0155792
0.00892453
0.00530831
0.00326064
0.0020739
0.00137598
0.000961782
0.000715195
0.000569071
0.000483637
0.000434624
0.000406947
0.000391411
0.000382955
0.000378806
0.000376845
3.11863
2.0454
1.08618
0.509533
0.230286
0.105788
0.051227
0.0264195
0.0144244
0.00829672
0.00494378
0.00303992
0.0019362
0.00128807
0.000904697
0.000677738
0.000544428
0.000467458
0.000423999
0.000399941
0.00038683
0.000380168
0.000377104
0.000375823
2.93268
1.90111
0.998097
0.466322
0.21085
0.0972928
0.047418
0.0246083
0.0135102
0.00779872
0.00465743
0.00286938
0.00183208
0.00122333
0.000863952
0.000652006
0.000528275
0.000457421
0.000417783
0.000396049
0.000384455
0.000378753
0.000376258
0.000375304
2.80845
1.79868
0.932975
0.433906
0.196061
0.0907433
0.0444496
0.0231889
0.0127959
0.00741195
0.00443874
0.00274245
0.00175715
0.00117867
0.00083733
0.000636345
0.000519345
0.000452549
0.000415256
0.000394809
0.000383906
0.000378496
0.000376083
0.000375167
2.74056
1.73387
0.887952
0.410726
0.185189
0.0858261
0.0421892
0.0221018
0.0122506
0.00712129
0.00427916
0.00265378
0.0017079
0.00115171
0.000823132
0.000629514
0.000516718
0.000452093
0.00041584
0.000395734
0.000384726
0.000379055
0.000376363
0.000375219
2.72781
1.70448
0.861092
0.395648
0.177684
0.0822972
0.0405309
0.0212989
0.011851
0.0069145
0.00417166
0.00259909
0.0016816
0.00114067
0.000820172
0.000630507
0.000519339
0.000455536
0.000419216
0.000398643
0.000387014
0.000380551
0.000377131
0.000375419
2.77202
1.71025
0.851353
0.387913
0.173139
0.079969
0.0393906
0.0207412
0.011578
0.0067815
0.00411049
0.00257497
0.00167616
0.00114387
0.000826707
0.000638166
0.000527368
0.000462704
0.000425218
0.00040339
0.000390532
0.000382902
0.000378409
0.000375802
2.88097
1.75299
0.858634
0.387122
0.171276
0.0786976
0.0387009
0.0203967
0.0114159
0.00671378
0.00409082
0.00257829
0.00168893
0.00115961
0.000842783
0.000653391
0.000540444
0.00047351
0.000433836
0.000410011
0.00039535
0.000386088
0.000380165
0.000376378
3.06797
1.83668
0.883972
0.3931
0.171894
0.0783814
0.0384106
0.0202388
0.0113509
0.00670367
0.00410775
0.00260598
0.00171911
0.00118856
0.000868881
0.00067548
0.000558589
0.000488037
0.000445186
0.000418627
0.000401584
0.000390214
0.000382477
0.000377191
3.35577
1.9684
0.929066
0.40592
0.174837
0.0789031
0.0384638
0.0202425
0.0113705
0.00674444
0.00415838
0.00265747
0.00176686
0.0012306
0.000904306
0.000704561
0.000581986
0.000506503
0.000459484
0.000429433
0.000409406
0.000395433
0.000385476
0.000378336
3.7817
2.1598
0.995614
0.425709
0.179973
0.0801686
0.0388081
0.0203805
0.0114614
0.00682948
0.00423953
0.00273145
0.00183137
0.00128495
0.000949097
0.000740871
0.000610955
0.000529248
0.000477053
0.000442714
0.000419059
0.000401953
0.000389337
0.00037993
4.40777
2.42759
1.08619
0.452565
0.187119
0.0820583
0.0393839
0.0206242
0.0116099
0.00695149
0.00434688
0.00282498
0.00191095
0.00135123
0.00100341
0.000784761
0.000645937
0.000556734
0.000498324
0.000458849
0.000430863
0.000410035
0.000394267
0.000382111
5.34393
2.79567
1.2034
0.486233
0.195936
0.0844024
0.0401166
0.0209406
0.0118006
0.00710266
0.00447632
0.00293604
0.00200478
0.00142925
0.00106741
0.000836632
0.000687448
0.000589513
0.000523833
0.000478313
0.000445212
0.000419992
0.000400496
0.000385025
6.80158
3.29743
1.34808
0.525443
0.205756
0.0869438
0.04091
0.0212904
0.0120172
0.0072747
0.00462346
0.00306236
0.00211182
0.00151868
0.00114121
0.000896849
0.000736009
0.000628177
0.000554169
0.000501649
0.000462575
0.000432202
0.0004083
0.00038886
9.29843
3.98717
1.51505
0.566613
0.215347
0.0893133
0.0416458
0.0216294
0.012244
0.00745939
0.00478387
0.00320156
0.00223087
0.00161905
0.0012248
0.000965706
0.000792107
0.000673323
0.000589983
0.000529509
0.000483556
0.000447139
0.000417824
0.000393713
14.886
4.86429
1.67739
0.601567
0.22277
0.0910515
0.0421998
0.0219186
0.0124624
0.00764904
0.00495348
0.00335136
0.00236073
0.00172984
0.00131814
0.0010435
0.000856259
0.000725611
0.000631999
0.000562604
0.000508759
0.000465203
0.000429296
0.000399654
3.14057
2.36391
2.37783
2.22092
2.53094
26.6556
1.05829
1.13502
1.36891
1.77016
3.98922
11.6465
0.273816
1.03977
1.44644
2.34524
5.96891
11.1076
1.35151
1.32293
1.74308
3.12715
7.14222
10.2714
1.73709
1.55232
2.09631
3.88623
7.45022
9.10873
2.00563
1.73382
2.44117
4.48745
7.33535
8.02338
2.2265
1.89008
2.74805
4.85669
6.95634
7.0663
2.41654
2.02985
3.00259
5.00873
6.52478
6.23547
2.57892
2.15524
3.20117
5.0222
6.10516
5.53499
2.71431
2.26598
3.34692
4.95217
5.717
4.96037
2.82372
2.3566
3.44369
4.83135
5.37193
4.50012
2.90424
2.42211
3.49676
4.69394
5.07542
4.14125
2.94227
2.45786
3.51279
4.55744
4.82964
3.87211
2.93599
2.46576
3.49928
4.4322
4.63522
3.68335
2.88522
2.44965
3.46369
4.32421
4.49061
3.57161
2.79027
2.41485
3.41436
4.23756
4.39325
3.54679
2.65055
2.37024
3.36043
4.17706
4.35543
3.587
2.4649
2.32818
3.3131
4.14844
4.37707
3.72334
2.2311
2.30521
3.28642
4.15812
4.46917
3.95293
1.94565
2.32038
3.30078
4.21284
4.65905
4.27952
1.60282
2.40975
3.39642
4.34889
4.9509
4.74047
1.19503
2.65416
3.68288
4.65534
5.39009
5.54538
0.897032
3.34632
4.54434
5.48334
6.1724
7.60964
2.58
6.33726
8.71695
9.24519
8.79525
6.2153
13.3737
4.91325
1.72965
0.61506
0.225578
0.0916968
0.0424696
0.0221288
0.0126606
0.00783801
0.00512912
0.00350993
0.00250043
0.00185071
0.00142133
0.00113065
0.000929111
0.000785813
0.000681032
0.000601705
0.000538838
0.000486899
0.000443127
0.000406843
10.9575
4.56976
1.68243
0.606081
0.2237
0.0912713
0.0424442
0.0222522
0.0128345
0.00802333
0.00530887
0.00367611
0.00264943
0.00198161
0.00153472
0.0012278
0.0010115
0.000854879
0.000738066
0.000647759
0.000574638
0.000512923
0.000459849
0.000415486
8.98421
4.02566
1.58514
0.582637
0.218369
0.0900025
0.042184
0.0222949
0.0129872
0.00820474
0.00549216
0.00384956
0.0028077
0.00212285
0.00165891
0.00133579
0.00110444
0.000933948
0.000804287
0.000701934
0.000617252
0.000544239
0.000480265
0.000425886
7.40328
3.45179
1.45222
0.551517
0.210528
0.0880372
0.0417248
0.022276
0.0131229
0.00838376
0.00567966
0.00403069
0.00297572
0.00227505
0.00179472
0.00145563
0.00120912
0.00102432
0.000881061
0.00076561
0.000668018
0.000582129
0.000505678
0.000438695
6.14688
2.95384
1.29251
0.514504
0.201129
0.0855784
0.0411146
0.0222133
0.013247
0.00856344
0.00587318
0.00422077
0.00315452
0.00243924
0.00194324
0.00158852
0.00132686
0.00112744
0.000969977
0.000840493
0.000728705
0.000628254
0.000537152
0.000454457
5.15162
2.54055
1.14658
0.474058
0.19122
0.0828553
0.0404176
0.0221279
0.0133688
0.0087488
0.0060759
0.00442209
0.00334595
0.00261703
0.002106
0.00173601
0.00145928
0.00124505
0.0010729
0.000928548
0.00080127
0.000684354
0.000575968
0.000473722
4.36929
2.20321
1.01886
0.433479
0.180945
0.0800881
0.0397134
0.0220513
0.013502
0.00894748
0.00629289
0.00463838
0.00355299
0.00281099
0.00228534
0.00190033
0.0016086
0.00137943
0.00119219
0.00103218
0.000888089
0.000752594
0.000623822
0.000497286
3.75938
1.93048
0.911004
0.398018
0.171006
0.077488
0.039089
0.0220162
0.013664
0.00917022
0.00653158
0.00487529
0.00378024
0.00302506
0.00248484
0.00208482
0.00177803
0.00153371
0.00133093
0.00115447
0.000992193
0.000835806
0.000683034
0.000526242
3.28721
1.71207
0.822142
0.36787
0.162053
0.0752306
0.0386176
0.022055
0.013876
0.00943104
0.00680214
0.00514082
0.00403445
0.00326523
0.00270995
0.0022946
0.00197242
0.00171254
0.0014936
0.00129972
0.00111771
0.000937867
0.000756847
0.000562051
2.92463
1.53929
0.750659
0.34313
0.154542
0.0734712
0.0383697
0.0222208
0.0141647
0.00974744
0.00711778
0.00544585
0.00432511
0.00354019
0.00296887
0.00253754
0.00219942
0.0019233
0.0016873
0.00147468
0.00127099
0.00106469
0.000850271
0.000606782
2.64975
1.40514
0.694903
0.323831
0.148845
0.0723554
0.0383708
0.0225504
0.0145593
0.0101407
0.00749536
0.00580473
0.00466522
0.00386221
0.00327365
0.00282573
0.00247128
0.00217849
0.00192458
0.00169169
0.00146387
0.0012274
0.000973047
0.000664361
2.44608
1.30432
0.653385
0.309811
0.145772
0.0719996
0.038761
0.0230954
0.0150931
0.0106366
0.00795604
0.00623609
0.00507204
0.00424809
0.00364128
0.00317701
0.0028073
0.00249931
0.00222897
0.0019767
0.00172437
0.0014552
0.0011532
0.000750981
2.30204
1.23308
0.624895
0.301155
0.144741
0.0725744
0.0396499
0.0239184
0.0158082
0.0112675
0.00852711
0.00676408
0.00556805
0.00471978
0.00409426
0.00361566
0.00323503
0.00291865
0.00264154
0.00238316
0.00212393
0.0018423
0.00150769
0.000999714
2.21016
1.18911
0.608637
0.299312
0.14597
0.0743578
0.0411551
0.0251006
0.0167628
0.0120778
0.00924497
0.00742049
0.00618229
0.00530488
0.00466004
0.0041704
0.00378661
0.00347556
0.00321445
0.00298784
0.00278647
0.00261204
0.00250127
0.00256806
2.17002
1.17227
0.606868
0.30275
0.150162
0.0776209
0.0434526
0.0267548
0.0180372
0.0131289
0.0101598
0.0082485
0.0069533
0.00603878
0.00537192
0.00487364
0.00449503
0.00420555
0.00398741
0.00383283
0.00374238
0.00373132
0.00384775
0.00416166
2.17483
1.18341
0.618757
0.313378
0.157983
0.0827608
0.0467935
0.029049
0.0197485
0.0145092
0.0113432
0.00930909
0.00793488
0.00697002
0.00627445
0.00576685
0.0053995
0.00514595
0.00499506
0.00494697
0.00500518
0.00518597
0.00553513
0.00605694
2.23754
1.2264
0.647703
0.33291
0.170481
0.0904213
0.0515724
0.0322363
0.0220714
0.0163494
0.0129002
0.0106912
0.00920503
0.00816854
0.00743106
0.0069078
0.00655227
0.00634283
0.00627586
0.00635059
0.00657902
0.0069808
0.00757394
0.00831879
2.36849
1.30944
0.698644
0.36429
0.189409
0.101649
0.0584095
0.0367114
0.025275
0.0188485
0.0149889
0.0125278
0.0108799
0.00973803
0.00893521
0.00838063
0.00802824
0.0078618
0.00788296
0.00808268
0.00850396
0.00914175
0.0100041
0.0110121
2.58709
1.44588
0.779869
0.412452
0.217665
0.118153
0.0683336
0.0431126
0.0297886
0.02232
0.017856
0.0150245
0.0131378
0.0118368
0.0109288
0.0103125
0.00994028
0.00980188
0.00989216
0.0102193
0.0108383
0.0117278
0.0128939
0.0142226
2.92569
1.65728
0.905384
0.485962
0.260364
0.142949
0.0831347
0.052535
0.036335
0.0272819
0.0219022
0.0185107
0.0162618
0.0147147
0.0136357
0.0129035
0.0124659
0.0123175
0.012447
0.0128747
0.0136772
0.0148263
0.0163323
0.0180542
3.40572
1.96848
1.09573
0.598411
0.325633
0.180883
0.105791
0.0668758
0.0461754
0.03463
0.0278092
0.0235382
0.0207198
0.0187819
0.0174217
0.0164823
0.0158986
0.0156666
0.015784
0.0162492
0.0171858
0.0185791
0.0204503
0.0226493
4.08958
2.40345
1.37768
0.774432
0.43122
0.242972
0.14276
0.0899849
0.0617481
0.0460312
0.036807
0.0310771
0.0273193
0.0247372
0.0229072
0.0216071
0.0207396
0.0202912
0.0203042
0.0207037
0.0216613
0.0232383
0.0254661
0.0282298
5.18685
2.98443
1.75229
1.02243
0.590659
0.342231
0.204019
0.128737
0.0876704
0.0646692
0.0512099
0.0429125
0.0375139
0.0338172
0.0311786
0.0292523
0.0278724
0.0269957
0.0266722
0.0268941
0.0276801
0.029265
0.0317667
0.0351696
7.5379
4.30308
2.42309
1.43148
0.852829
0.51009
0.310428
0.196855
0.133003
0.096746
0.0754867
0.0624395
0.0540145
0.0482844
0.0441932
0.0411581
0.0388705
0.0372074
0.0361823
0.0359083
0.0363246
0.0375645
0.0400802
0.0441405
)
;

boundaryField
{
    rotor
    {
        type            epsilonWallFunction;
        value           nonuniform List<scalar> 
144
(
2.01854
2.42973
2.92964
3.00037
2.78702
2.59324
2.01854
0.879142
0.235207
0.257459
0.272468
1.19918
1.36076
1.50154
1.61875
1.71108
1.7785
1.82228
1.83994
1.82852
1.78452
1.70818
1.60076
1.46458
1.30235
1.1858
0.264383
0.240552
0.886876
1.96926
1.96926
2.58518
3.94873
4.95935
5.47103
6.01508
1.88285
2.35274
3.90328
5.32324
6.10084
26.4226
1.88285
0.862959
0.237391
0.263281
0.281007
1.25829
1.38037
1.48322
1.56147
1.6121
1.63341
1.62861
1.59507
1.54211
1.47281
1.38646
1.28395
1.19033
0.275736
0.265324
0.248964
0.226814
0.846778
1.97823
1.97823
2.17763
2.25288
2.0002
2.07653
4.69668
2.91055
8.83987
11.5247
12.4719
47.0497
55.572
2.91055
1.10517
1.60856
2.24624
2.8575
3.41174
3.8908
4.28507
4.59077
4.80773
4.93793
4.98437
4.95108
4.84204
4.6596
4.40056
4.0645
3.6534
3.17208
2.62987
2.04316
1.43924
1.00951
2.36803
2.36803
6.70276
9.15362
10.7636
10.9944
45.9661
3.14057
2.36391
2.37783
2.22092
2.53094
26.6556
3.14057
1.05829
0.273816
1.35151
1.73709
2.00563
2.2265
2.41654
2.57892
2.71431
2.82372
2.90424
2.94227
2.93599
2.88522
2.79027
2.65055
2.4649
2.2311
1.94565
1.60282
1.19503
0.897032
2.58
2.58
6.33726
8.71695
9.24519
8.79525
6.2153
)
;
    }
    freestream
    {
        type            inletOutlet;
        inletValue      uniform 0.000375;
        value           nonuniform List<scalar> 
96
(
0.0563143
0.0739588
0.101234
0.144875
0.219571
0.37449
0.733016
1.37954
2.05135
2.37656
2.39104
2.17829
2.07408
2.14201
2.16817
1.87769
1.35215
1.01556
0.854676
0.746445
0.639393
0.535786
0.445614
0.364328
0.29365
0.234925
0.187082
0.14861
0.117879
0.0932164
0.0733191
0.0571561
0.0439743
0.033158
0.0242489
0.016887
0.0107624
0.00547767
0.000375
0.000375
0.000375
0.000375
0.000375
0.000375
0.000375
0.000375
0.000375
0.000375
0.000375
0.000375
0.000375
0.000375
0.000375
0.000375
0.000375
0.000375
0.000375
0.000375
0.000375
0.000375
0.000375
0.000375
0.000375
0.000375
0.000375
0.000375
0.000375
0.000375
0.000375
0.000375
0.000375
0.000375
0.000375
0.000375
0.000375
0.000375
0.000375
0.000375
0.000375
0.000375
0.000375
0.000375
0.000375
0.000375
0.000375
0.00256806
0.00416166
0.00605694
0.00831879
0.0110121
0.0142226
0.0180542
0.0226493
0.0282298
0.0351696
0.0441405
)
;
    }
    frontAndBack
    {
        type            empty;
    }
}


// ************************************************************************* //
