/*--------------------------------*- C++ -*----------------------------------*\
  =========                 |
  \\      /  F ield         | OpenFOAM: The Open Source CFD Toolbox
   \\    /   O peration     | Website:  https://openfoam.org
    \\  /    A nd           | Version:  11
     \\/     M anipulation  |
\*---------------------------------------------------------------------------*/
FoamFile
{
    format      ascii;
    class       volScalarField;
    location    "1.36";
    object      p;
}
// * * * * * * * * * * * * * * * * * * * * * * * * * * * * * * * * * * * * * //

dimensions      [0 2 -2 0 0 0 0];

internalField   nonuniform List<scalar> 
2880
(
-0.23553
-0.228961
-0.233808
-0.241746
-0.253851
-0.271108
-0.237792
-0.231452
-0.238251
-0.247925
-0.260492
-0.281236
-0.242453
-0.234896
-0.243617
-0.254463
-0.266707
-0.283356
-0.245515
-0.237683
-0.247884
-0.259213
-0.271288
-0.284779
-0.244424
-0.239427
-0.250824
-0.262383
-0.274375
-0.286183
-0.241617
-0.240967
-0.253001
-0.264672
-0.276464
-0.287194
-0.241211
-0.243221
-0.254928
-0.266461
-0.277803
-0.287614
-0.242578
-0.245755
-0.256691
-0.267892
-0.278546
-0.287468
-0.243885
-0.24816
-0.258235
-0.268965
-0.278802
-0.28685
-0.244914
-0.250306
-0.259515
-0.269651
-0.278646
-0.285833
-0.245697
-0.2521
-0.260473
-0.269968
-0.278136
-0.284477
-0.246239
-0.253477
-0.261076
-0.269942
-0.277319
-0.282837
-0.246545
-0.254396
-0.2613
-0.269607
-0.276243
-0.280968
-0.246627
-0.254878
-0.26115
-0.268991
-0.274952
-0.278914
-0.24653
-0.25495
-0.260644
-0.268125
-0.273485
-0.276711
-0.246341
-0.25466
-0.259816
-0.267039
-0.271872
-0.274379
-0.246171
-0.25408
-0.258715
-0.265763
-0.270131
-0.271915
-0.245993
-0.253282
-0.25741
-0.264315
-0.268256
-0.269289
-0.245698
-0.252343
-0.255987
-0.262708
-0.266223
-0.266433
-0.243876
-0.251459
-0.254613
-0.26097
-0.263996
-0.263219
-0.240625
-0.251121
-0.253561
-0.259179
-0.26152
-0.259362
-0.241032
-0.251743
-0.253114
-0.257311
-0.258454
-0.254197
-0.244505
-0.252784
-0.252925
-0.254755
-0.253611
-0.246997
-0.246191
-0.25317
-0.251684
-0.250414
-0.245631
-0.239539
-0.202167
-0.197478
-0.188484
-0.175998
-0.161012
-0.143924
-0.125705
-0.107881
-0.0909597
-0.0754732
-0.061192
-0.0479316
-0.0356242
-0.0241955
-0.013602
-0.00371442
0.0055367
0.0141528
0.0221476
0.0295198
0.0364701
0.0448643
0.0583366
0.0609857
-0.233491
-0.221813
-0.20804
-0.19312
-0.176951
-0.15952
-0.141188
-0.122962
-0.105389
-0.0889104
-0.0741809
-0.0609174
-0.0484969
-0.0369416
-0.0262983
-0.0163403
-0.00693618
0.0018411
0.0100247
0.0176375
0.0247835
0.0326871
0.0439815
0.0482321
-0.259538
-0.245692
-0.230155
-0.213672
-0.196344
-0.177892
-0.158544
-0.139214
-0.120498
-0.103104
-0.0874776
-0.0732773
-0.0606045
-0.0492569
-0.0386921
-0.0286904
-0.0192382
-0.0102888
-0.00182486
0.00627513
0.0139301
0.0217815
0.0312893
0.0368502
-0.276433
-0.265934
-0.251627
-0.235025
-0.216708
-0.197367
-0.177698
-0.157628
-0.137554
-0.118932
-0.102349
-0.0873837
-0.0738664
-0.0616641
-0.0505105
-0.0403695
-0.0311003
-0.0221927
-0.0135236
-0.00508877
0.0031259
0.0112026
0.0195185
0.0291896
-0.285558
-0.280749
-0.269683
-0.254541
-0.236256
-0.216256
-0.195483
-0.174641
-0.154953
-0.136862
-0.119991
-0.104235
-0.0898441
-0.0770787
-0.0655831
-0.0548407
-0.04442
-0.0343285
-0.0246399
-0.0155288
-0.00695129
0.0016313
0.0103569
0.0231107
-0.290159
-0.289661
-0.282285
-0.269711
-0.252997
-0.233565
-0.212686
-0.191535
-0.171159
-0.152004
-0.134485
-0.119231
-0.106081
-0.0941466
-0.0830625
-0.072397
-0.0617339
-0.0510947
-0.0404675
-0.0295349
-0.0183322
-0.00662281
0.00441903
0.0166364
-0.292296
-0.294049
-0.289543
-0.279692
-0.265304
-0.247608
-0.227792
-0.207129
-0.186689
-0.167124
-0.14912
-0.133071
-0.118726
-0.105941
-0.0946335
-0.0844819
-0.0750788
-0.0657554
-0.0558244
-0.0448649
-0.0327437
-0.0188043
-0.00496205
0.0111729
-0.292893
-0.295525
-0.292794
-0.285149
-0.273079
-0.257513
-0.239461
-0.220049
-0.200228
-0.18077
-0.162433
-0.145498
-0.130039
-0.116128
-0.103703
-0.0926067
-0.0823983
-0.072502
-0.0624201
-0.0516269
-0.0396393
-0.0255299
-0.00982415
0.00928125
-0.292389
-0.295155
-0.293373
-0.287304
-0.277226
-0.26378
-0.247726
-0.229945
-0.211243
-0.192351
-0.173892
-0.156256
-0.139805
-0.124624
-0.110633
-0.0978251
-0.0860173
-0.0748085
-0.0637535
-0.0523671
-0.0401328
-0.0263227
-0.0105405
0.00647232
-0.291072
-0.29356
-0.292216
-0.287255
-0.278868
-0.267469
-0.253553
-0.237727
-0.220626
-0.202793
-0.184727
-0.166846
-0.149494
-0.132902
-0.117161
-0.102274
-0.0882747
-0.0750482
-0.0623213
-0.0497716
-0.0370375
-0.0236922
-0.00949407
0.0033104
-0.289153
-0.291125
-0.289918
-0.285788
-0.278912
-0.269556
-0.258003
-0.244556
-0.229681
-0.213672
-0.196842
-0.179486
-0.161885
-0.144336
-0.127064
-0.110069
-0.0935557
-0.077665
-0.0623681
-0.0475414
-0.0331805
-0.0190728
-0.0045915
0.00758215
-0.286789
-0.288097
-0.28685
-0.283395
-0.277946
-0.270689
-0.261785
-0.251319
-0.239424
-0.226288
-0.211964
-0.196551
-0.180223
-0.163245
-0.14571
-0.127257
-0.108373
-0.0893745
-0.0705397
-0.0522426
-0.0347562
-0.0171617
0.00312989
0.02257
-0.284092
-0.284631
-0.28323
-0.280364
-0.276341
-0.271312
-0.26534
-0.258546
-0.250773
-0.241976
-0.231844
-0.220142
-0.206598
-0.190804
-0.172057
-0.151397
-0.129517
-0.106891
-0.0841539
-0.062041
-0.0409611
-0.01998
0.00327464
0.0191837
-0.281138
-0.280811
-0.279165
-0.276825
-0.274272
-0.271718
-0.269053
-0.266424
-0.26331
-0.259258
-0.253692
-0.245871
-0.235066
-0.220669
-0.202903
-0.182483
-0.159355
-0.1343
-0.10838
-0.0828509
-0.0589564
-0.0384001
-0.0243783
-0.0164436
-0.277963
-0.276662
-0.274679
-0.272803
-0.271638
-0.271472
-0.272209
-0.273817
-0.275718
-0.27714
-0.277129
-0.27462
-0.268569
-0.258215
-0.243422
-0.223701
-0.199304
-0.17124
-0.141039
-0.110464
-0.0815446
-0.0571043
-0.0410656
-0.0305519
-0.274567
-0.272147
-0.269693
-0.268166
-0.268305
-0.270418
-0.274711
-0.280737
-0.287958
-0.295479
-0.301975
-0.305903
-0.305645
-0.299818
-0.287701
-0.268539
-0.242839
-0.211694
-0.176908
-0.14081
-0.105822
-0.0744963
-0.049197
-0.0280555
-0.270908
-0.267177
-0.264099
-0.262772
-0.26407
-0.268402
-0.275984
-0.28625
-0.298655
-0.312011
-0.324645
-0.334553
-0.339581
-0.338099
-0.32834
-0.310005
-0.283415
-0.249851
-0.211494
-0.170912
-0.130659
-0.0928842
-0.0583061
-0.0252729
-0.2669
-0.261631
-0.25776
-0.25647
-0.258719
-0.264969
-0.275322
-0.289297
-0.306074
-0.324161
-0.341524
-0.355791
-0.364563
-0.365447
-0.357155
-0.339123
-0.311717
-0.276409
-0.235528
-0.191741
-0.147691
-0.105226
-0.0645437
-0.0243035
-0.262426
-0.255347
-0.250469
-0.248978
-0.251866
-0.259558
-0.272044
-0.288745
-0.30853
-0.329588
-0.349564
-0.365819
-0.375732
-0.377122
-0.368596
-0.349663
-0.32095
-0.284151
-0.241666
-0.196223
-0.150488
-0.106325
-0.0633466
-0.0227118
-0.257297
-0.24815
-0.242049
-0.240063
-0.243164
-0.251694
-0.265479
-0.28372
-0.304959
-0.327064
-0.347413
-0.363338
-0.372274
-0.372108
-0.361626
-0.340794
-0.310586
-0.2729
-0.230241
-0.185317
-0.140797
-0.098317
-0.0585126
-0.0214538
-0.251178
-0.239942
-0.232448
-0.229624
-0.232462
-0.241177
-0.255392
-0.274013
-0.295233
-0.31662
-0.33556
-0.349343
-0.355467
-0.352185
-0.338868
-0.315888
-0.284557
-0.247064
-0.205954
-0.163801
-0.123603
-0.0857817
-0.0505912
-0.0175423
-0.243515
-0.23084
-0.221895
-0.217902
-0.220007
-0.22832
-0.242182
-0.26015
-0.280104
-0.2995
-0.315578
-0.32571
-0.32786
-0.320792
-0.304385
-0.279541
-0.248023
-0.212177
-0.174459
-0.137357
-0.102164
-0.0700181
-0.0408173
-0.0125269
-0.234846
-0.221695
-0.211114
-0.205569
-0.206546
-0.213966
-0.226825
-0.243342
-0.261106
-0.277342
-0.289373
-0.295009
-0.292589
-0.281528
-0.262402
-0.236654
-0.206315
-0.17363
-0.140708
-0.109168
-0.0801955
-0.0539495
-0.0294114
-0.00586407
-0.23222
-0.21476
-0.201286
-0.193677
-0.193166
-0.199265
-0.210584
-0.224933
-0.239571
-0.251718
-0.258992
-0.259558
-0.252511
-0.238034
-0.217246
-0.191966
-0.164164
-0.135639
-0.107967
-0.0822218
-0.0588825
-0.0376938
-0.0170547
0.00205797
-0.350209
-0.35368
-0.342939
-0.327042
-0.305153
-0.278729
-0.347291
-0.351847
-0.341696
-0.328663
-0.3108
-0.287014
-0.341476
-0.349105
-0.339927
-0.329335
-0.314507
-0.293871
-0.338233
-0.347338
-0.339568
-0.330722
-0.317886
-0.298665
-0.341313
-0.347321
-0.340826
-0.333346
-0.321722
-0.302549
-0.347962
-0.348659
-0.343339
-0.336922
-0.326222
-0.30697
-0.352041
-0.350452
-0.346527
-0.341165
-0.331375
-0.312399
-0.353533
-0.352358
-0.350036
-0.34588
-0.337072
-0.318755
-0.354902
-0.354307
-0.353679
-0.350899
-0.343134
-0.325778
-0.356561
-0.356194
-0.357312
-0.356064
-0.349353
-0.333162
-0.358259
-0.357889
-0.36082
-0.361232
-0.355531
-0.340681
-0.359755
-0.359291
-0.364105
-0.366285
-0.361481
-0.34813
-0.360917
-0.360336
-0.367101
-0.371118
-0.36703
-0.355706
-0.361653
-0.361011
-0.369792
-0.375623
-0.372148
-0.363336
-0.361887
-0.361253
-0.372239
-0.379727
-0.376958
-0.370673
-0.361598
-0.360954
-0.37447
-0.383442
-0.381039
-0.378023
-0.361001
-0.360156
-0.376506
-0.386861
-0.384411
-0.385678
-0.362638
-0.35953
-0.378447
-0.390148
-0.387352
-0.394095
-0.367529
-0.360327
-0.380356
-0.393535
-0.390278
-0.404147
-0.370634
-0.361557
-0.381869
-0.397231
-0.393749
-0.416934
-0.369969
-0.361808
-0.382419
-0.401016
-0.398592
-0.433379
-0.365855
-0.360211
-0.38141
-0.403708
-0.405964
-0.453973
-0.359681
-0.357209
-0.379254
-0.404313
-0.416458
-0.481524
-0.356688
-0.355156
-0.378346
-0.40516
-0.430896
-0.548289
-0.244964
-0.211945
-0.193551
-0.183294
-0.180896
-0.185251
-0.194461
-0.205852
-0.216505
-0.223817
-0.225833
-0.221433
-0.210479
-0.193688
-0.172667
-0.149148
-0.124569
-0.10038
-0.077679
-0.057046
-0.0385619
-0.0214135
-0.00351154
0.0114857
-0.250271
-0.211659
-0.188361
-0.175061
-0.170412
-0.172581
-0.178979
-0.186536
-0.192439
-0.194524
-0.191424
-0.182737
-0.168896
-0.151255
-0.13118
-0.109816
-0.0885315
-0.0683722
-0.0499875
-0.033576
-0.0189096
-0.00473083
0.0114656
0.022478
-0.254788
-0.213088
-0.185595
-0.169135
-0.161926
-0.161299
-0.164009
-0.167004
-0.167829
-0.164781
-0.157166
-0.145183
-0.129792
-0.112109
-0.0931897
-0.0741643
-0.0559603
-0.0392619
-0.0243781
-0.0112499
0.000532523
0.0126405
0.027942
0.0349891
-0.259389
-0.215817
-0.184822
-0.16531
-0.155051
-0.150808
-0.149168
-0.147292
-0.143035
-0.135317
-0.124048
-0.10983
-0.0935755
-0.0762588
-0.0587894
-0.0419396
-0.0263342
-0.0124011
-0.000207173
0.0104654
0.0201211
0.0308359
0.0458106
0.0488852
-0.264449
-0.219668
-0.185649
-0.162869
-0.148932
-0.140541
-0.134245
-0.127365
-0.118299
-0.106581
-0.0925172
-0.076807
-0.0602614
-0.0436246
-0.0275305
-0.0125104
0.00102187
0.0128361
0.023038
0.0319252
0.0400403
0.049849
0.0648451
0.0639916
-0.270183
-0.22438
-0.187431
-0.160847
-0.142969
-0.130119
-0.118925
-0.107112
-0.09373
-0.0787631
-0.0626766
-0.046088
-0.0295873
-0.0136785
0.00121927
0.0147624
0.0267041
0.0369676
0.0457588
0.0533834
0.0603883
0.0696261
0.0848326
0.0801712
-0.276535
-0.229421
-0.189135
-0.15872
-0.13668
-0.119048
-0.102824
-0.0863989
-0.0693567
-0.0518921
-0.0344168
-0.0173567
-0.00107708
0.0141297
0.0280275
0.0404257
0.0512051
0.0603924
0.0682312
0.074978
0.0811636
0.0900311
0.105551
0.0973606
-0.283203
-0.234314
-0.190196
-0.156142
-0.129456
-0.106747
-0.0856241
-0.0651295
-0.0451356
-0.0258269
-0.00744829
0.00979235
0.0257448
0.0403043
0.0533881
0.0649264
0.074892
0.0833673
0.090585
0.096726
0.102295
0.110909
0.126811
0.115561
-0.289728
-0.238521
-0.190459
-0.152398
-0.120634
-0.0927429
-0.0671086
-0.0431898
-0.0209127
-0.000316864
0.0185715
0.0357668
0.0513167
0.0652766
0.0776892
0.0885791
0.0979854
0.106015
0.112848
0.118571
0.123671
0.132084
0.148396
0.134784
-0.295548
-0.241499
-0.189467
-0.14674
-0.109595
-0.0766844
-0.0470918
-0.0204216
0.00352348
0.0249245
0.0439907
0.0609483
0.0760181
0.0893911
0.101212
0.111581
0.120585
0.128338
0.13495
0.140398
0.145142
0.153378
0.170089
0.15507
-0.300282
-0.243083
-0.186642
-0.138503
-0.0958669
-0.0583317
-0.0254131
0.00335797
0.0284141
0.0501954
0.0691439
0.0856791
0.10017
0.112919
0.124153
0.134036
0.142693
0.150243
0.156731
0.162007
0.166493
0.174564
0.191631
0.176556
-0.303866
-0.243361
-0.181419
-0.127102
-0.0790931
-0.0374853
-0.00189964
0.028357
0.0540166
0.0757909
0.0943445
0.110266
0.124047
0.13608
0.146658
0.155996
0.164259
0.171576
0.177959
0.183159
0.187517
0.195411
0.212649
0.199529
-0.306146
-0.242116
-0.173095
-0.112018
-0.0589723
-0.013942
0.023644
0.0548012
0.0805901
0.101994
0.119882
0.134987
0.147899
0.159074
0.168856
0.177503
0.185215
0.192148
0.198328
0.203526
0.207968
0.215477
0.231947
0.224687
-0.306854
-0.238488
-0.16087
-0.0928362
-0.035259
0.0125013
0.0514262
0.0829196
0.108384
0.129067
0.146024
0.160104
0.171969
0.182117
0.190917
0.198648
0.205529
0.211734
0.217348
0.22227
0.226452
0.23177
0.243681
0.253291
-0.305533
-0.231355
-0.144116
-0.0692374
-0.00771651
0.0420644
0.0816642
0.112933
0.137625
0.157242
0.173007
0.185863
0.196517
0.205484
0.213133
0.219734
0.225482
0.230527
0.234969
0.238735
0.241304
0.24258
0.248817
0.281739
-0.301749
-0.219645
-0.12221
-0.0408194
0.0239511
0.0749911
0.114571
0.145034
0.168495
0.1867
0.20102
0.212475
0.221794
0.229493
0.235933
0.241367
0.245978
0.249913
0.253232
0.255596
0.256402
0.258447
0.273317
0.292642
-0.294927
-0.202099
-0.0943296
-0.00702752
0.0601077
0.111534
0.150332
0.179364
0.201113
0.217547
0.230172
0.240069
0.247965
0.254364
0.259616
0.263963
0.267588
0.270642
0.273137
0.274619
0.274905
0.278793
0.297692
0.306434
-0.283901
-0.177083
-0.0595427
0.0327594
0.101136
0.151916
0.189072
0.215976
0.235499
0.249798
0.260491
0.268676
0.275071
0.280153
0.284251
0.287594
0.290359
0.29269
0.294556
0.295455
0.295445
0.3001
0.320282
0.323897
-0.266747
-0.142462
-0.0167504
0.0792073
0.147372
0.196268
0.230782
0.254852
0.271596
0.283377
0.29189
0.29822
0.303037
0.306778
0.30974
0.31213
0.314106
0.315792
0.317118
0.317542
0.317223
0.322058
0.342568
0.343638
-0.241922
-0.0957926
0.0352983
0.132974
0.199032
0.24462
0.275396
0.295808
0.309219
0.318111
0.324204
0.328535
0.331697
0.334065
0.335891
0.337351
0.338572
0.33965
0.340474
0.340461
0.339812
0.344538
0.364806
0.364389
-0.211094
-0.0342451
0.0982452
0.194612
0.256385
0.296844
0.322638
0.338552
0.348081
0.353731
0.357183
0.359382
0.360812
0.361767
0.362447
0.362979
0.363456
0.363935
0.364261
0.363821
0.362841
0.367311
0.38695
0.385627
-0.178216
0.0488778
0.174862
0.264946
0.319257
0.352537
0.37204
0.382635
0.38777
0.389868
0.390497
0.390454
0.390088
0.389599
0.389118
0.388724
0.388463
0.388348
0.388183
0.387334
0.386044
0.390169
0.408869
0.40698
-0.128654
0.169778
0.26921
0.344223
0.386969
0.410886
0.422854
0.427412
0.427743
0.426062
0.423744
0.42139
0.419191
0.41724
0.415597
0.414281
0.413289
0.412587
0.411941
0.410708
0.409144
0.412875
0.430394
0.428174
0.0292318
0.339833
0.382194
0.430701
0.457742
0.470477
0.473998
0.472045
0.467338
0.461775
0.456469
0.451791
0.447758
0.444354
0.441562
0.439342
0.437638
0.436366
0.435256
0.433672
0.431882
0.435195
0.451351
0.448977
1.30416
1.32295
1.34606
1.38524
1.40575
1.45609
1.30446
1.32103
1.33987
1.36747
1.34715
1.32514
1.30464
1.31833
1.33127
1.34774
1.31472
1.2533
1.30446
1.31576
1.32272
1.32906
1.28936
1.21815
1.30391
1.31347
1.31507
1.31298
1.2705
1.20167
1.30294
1.31118
1.30821
1.29954
1.25673
1.19349
1.30153
1.30847
1.3018
1.28824
1.24634
1.18839
1.29974
1.3052
1.29567
1.27861
1.23821
1.18529
1.29766
1.30141
1.2898
1.27026
1.23149
1.18312
1.29541
1.29729
1.28423
1.26297
1.22558
1.18087
1.2931
1.2931
1.2791
1.25661
1.22012
1.178
1.29081
1.28907
1.27449
1.25114
1.2149
1.17423
1.28863
1.28538
1.27055
1.24656
1.20984
1.16951
1.2866
1.2822
1.26729
1.24291
1.20493
1.16388
1.28476
1.2796
1.26475
1.24026
1.20026
1.15754
1.28312
1.27763
1.26291
1.23874
1.19594
1.15081
1.2817
1.27624
1.26171
1.23851
1.19221
1.14428
1.28049
1.27537
1.2611
1.2398
1.18944
1.13894
1.27948
1.27493
1.26101
1.24285
1.188
1.13689
1.27869
1.27474
1.26136
1.24803
1.18769
1.1429
1.27811
1.27446
1.26202
1.25546
1.18847
1.16262
1.27771
1.27359
1.26277
1.26374
1.19623
1.192
1.27743
1.27204
1.26346
1.27282
1.21291
1.25281
1.27727
1.27083
1.26413
1.28149
1.24688
1.33994
0.437834
0.510819
0.501522
0.519401
0.528588
0.529355
0.524132
0.515569
0.505825
0.496431
0.488195
0.481243
0.475418
0.4706
0.466697
0.463609
0.461224
0.459409
0.457864
0.455971
0.454007
0.456892
0.471549
0.469165
0.685004
0.647031
0.610197
0.603371
0.596077
0.585473
0.571898
0.557021
0.542486
0.52946
0.518448
0.509338
0.50181
0.495651
0.4907
0.486797
0.483777
0.481459
0.479516
0.477363
0.475276
0.47773
0.490792
0.488506
0.83345
0.759253
0.703771
0.678446
0.657665
0.637204
0.616167
0.595574
0.576683
0.56035
0.546799
0.535698
0.526597
0.519201
0.513288
0.508643
0.505048
0.502275
0.49998
0.497614
0.495452
0.497472
0.508881
0.506771
0.921172
0.84488
0.780652
0.742945
0.711989
0.683509
0.656143
0.630602
0.607908
0.588674
0.572876
0.559995
0.549482
0.540978
0.534208
0.528907
0.524806
0.521634
0.519033
0.516503
0.514303
0.515888
0.525622
0.523734
0.983908
0.908646
0.84238
0.796926
0.758619
0.723876
0.69135
0.661688
0.635793
0.614104
0.596381
0.581956
0.570213
0.560745
0.553236
0.547375
0.542843
0.539328
0.536468
0.533814
0.531607
0.53277
0.540852
0.539182
1.02961
0.957117
0.891181
0.841065
0.797639
0.758165
0.721572
0.688595
0.6601
0.636401
0.617083
0.601361
0.58858
0.578303
0.570179
0.563855
0.558967
0.555165
0.552088
0.549345
0.547164
0.547954
0.554446
0.552853
1.06269
0.99369
0.929028
0.876274
0.829417
0.786474
0.746777
0.711225
0.680693
0.655409
0.634814
0.618039
0.604415
0.593486
0.584871
0.57818
0.573004
0.568962
0.565699
0.562887
0.56075
0.561223
0.566172
0.564381
1.08559
1.02047
0.957563
0.903499
0.854446
0.809041
0.767054
0.729577
0.697517
0.671035
0.649461
0.631869
0.617592
0.606163
0.597176
0.590205
0.584802
0.580559
0.577132
0.574255
0.572131
0.572243
0.575763
0.574043
1.10061
1.03918
0.97814
0.923608
0.873243
0.826162
0.782557
0.743709
0.710568
0.683235
0.660953
0.642767
0.628018
0.616234
0.606988
0.59982
0.594245
0.589839
0.586276
0.583342
0.581202
0.580914
0.583185
0.581796
1.10951
1.0512
0.991834
0.937343
0.88629
0.838139
0.793462
0.753713
0.719875
0.691997
0.669256
0.650682
0.635632
0.62363
0.614232
0.606943
0.601253
0.596728
0.593064
0.590096
0.587934
0.587265
0.588513
0.58761
1.1134
1.05747
0.999456
0.945292
0.893993
0.845243
0.79994
0.759686
0.725484
0.697333
0.674356
0.655588
0.640398
0.628308
0.618854
0.611519
0.605769
0.601171
0.59745
0.594475
0.592309
0.591345
0.591798
0.591255
1.1129
1.05864
1.00157
0.947887
0.896664
0.847695
0.802141
0.761722
0.727448
0.699267
0.676262
0.657481
0.642301
0.630242
0.620825
0.61351
0.607755
0.603131
0.59939
0.596432
0.594271
0.593076
0.592982
0.592748
1.10834
1.05506
0.998496
0.945398
0.894511
0.845649
0.800173
0.759896
0.725816
0.697831
0.674996
0.656373
0.641346
0.629431
0.620133
0.612902
0.607191
0.602585
0.598856
0.595925
0.593796
0.592522
0.592079
0.591969
1.09973
1.04683
0.990367
0.937941
0.887632
0.839187
0.794105
0.75426
0.720629
0.693058
0.670587
0.652288
0.637551
0.625887
0.616791
0.609707
0.604094
0.599554
0.595876
0.592993
0.5909
0.589607
0.589069
0.589038
1.0868
1.03382
0.977086
0.925475
0.876015
0.828316
0.783956
0.744842
0.711914
0.684981
0.66307
0.645263
0.630954
0.619649
0.610835
0.603959
0.5985
0.594075
0.590486
0.587668
0.585617
0.584384
0.583987
0.583943
1.06896
1.01563
0.958325
0.907801
0.859544
0.812979
0.769706
0.731647
0.6997
0.67364
0.652498
0.635359
0.621616
0.610772
0.602322
0.595725
0.590476
0.586214
0.582751
0.580014
0.578011
0.57692
0.576892
0.576748
1.04516
0.991603
0.933502
0.884551
0.837999
0.793059
0.751308
0.714674
0.684018
0.659095
0.638942
0.622648
0.60961
0.599341
0.591346
0.585096
0.580114
0.576063
0.572762
0.570121
0.568175
0.567302
0.567858
0.567533
1.01376
0.9607
0.901792
0.855203
0.811068
0.768396
0.728696
0.693926
0.664912
0.641412
0.622483
0.607222
0.595042
0.585467
0.578015
0.572183
0.567526
0.563735
0.560632
0.558105
0.556223
0.555638
0.556971
0.556386
0.972017
0.921411
0.86212
0.819116
0.778386
0.738805
0.701809
0.669415
0.642447
0.620688
0.603234
0.589206
0.578039
0.569278
0.562463
0.557123
0.552853
0.549371
0.546503
0.544107
0.542299
0.54206
0.544339
0.543428
0.915569
0.871651
0.813093
0.775536
0.739577
0.704126
0.670618
0.641199
0.616733
0.597062
0.58135
0.56876
0.558765
0.550939
0.544854
0.540083
0.53626
0.533137
0.530538
0.528294
0.52657
0.526727
0.530093
0.528812
0.839688
0.808707
0.752909
0.723625
0.694302
0.664277
0.635177
0.609411
0.587947
0.570734
0.557035
0.546088
0.537418
0.530644
0.525383
0.521253
0.517936
0.515216
0.512922
0.510854
0.509231
0.50983
0.514401
0.512699
0.742309
0.728682
0.679318
0.662577
0.642372
0.619332
0.595685
0.574306
0.556365
0.541976
0.530551
0.521436
0.514233
0.508619
0.504265
0.500844
0.498088
0.495815
0.49386
0.491994
0.490496
0.491592
0.497472
0.495212
0.582698
0.624257
0.590171
0.592039
0.584018
0.569678
0.55258
0.536317
0.522386
0.51115
0.502224
0.495102
0.489483
0.485118
0.481742
0.479087
0.476934
0.475142
0.473552
0.471905
0.470527
0.472097
0.479384
0.476739
0.325051
0.490091
0.485974
0.51327
0.52037
0.516269
0.506669
0.496108
0.486558
0.478715
0.472447
0.467429
0.463476
0.460424
0.458077
0.456227
0.454709
0.453417
0.452205
0.450781
0.449495
0.451464
0.460189
0.457459
-0.43284
-0.489245
-0.562272
-0.625802
-0.652465
-0.911816
-0.445258
-0.495837
-0.566506
-0.62938
-0.643036
-0.788247
-0.457158
-0.501773
-0.569511
-0.631422
-0.635154
-0.705358
-0.455746
-0.506133
-0.569956
-0.630013
-0.630733
-0.637614
-0.455476
-0.509891
-0.568686
-0.623286
-0.619217
-0.588744
-0.458828
-0.512496
-0.56486
-0.610727
-0.599787
-0.55014
-0.460914
-0.51234
-0.557675
-0.593006
-0.57507
-0.514998
-0.461134
-0.509072
-0.547108
-0.571122
-0.547207
-0.481268
-0.459351
-0.502834
-0.533433
-0.546355
-0.517394
-0.448813
-0.45558
-0.493969
-0.517149
-0.519894
-0.486419
-0.417733
-0.449918
-0.482872
-0.498957
-0.492573
-0.454961
-0.387978
-0.442546
-0.46994
-0.479559
-0.465019
-0.423658
-0.359527
-0.433617
-0.455978
-0.459583
-0.437749
-0.393065
-0.332417
-0.423514
-0.441423
-0.439531
-0.411188
-0.36361
-0.306657
-0.412667
-0.426632
-0.419772
-0.385652
-0.335569
-0.282249
-0.401515
-0.411935
-0.400566
-0.361375
-0.309127
-0.259374
-0.39049
-0.397611
-0.382061
-0.338461
-0.284593
-0.238254
-0.379995
-0.383881
-0.364272
-0.316707
-0.261949
-0.219148
-0.370393
-0.370905
-0.347101
-0.295836
-0.240657
-0.201901
-0.362004
-0.358857
-0.330377
-0.275327
-0.219575
-0.185649
-0.355179
-0.348154
-0.313893
-0.254238
-0.19701
-0.16772
-0.350464
-0.339667
-0.29741
-0.230938
-0.170059
-0.14216
-0.348545
-0.333698
-0.280745
-0.203672
-0.134364
-0.103551
-0.348773
-0.328162
-0.264202
-0.17359
-0.0865043
-0.0645122
-0.0821808
0.308978
0.3728
0.430577
0.454031
0.460822
0.459159
0.454562
0.449556
0.445209
0.441666
0.438799
0.43655
0.434843
0.433551
0.43253
0.431662
0.430883
0.430057
0.42886
0.427646
0.429947
0.440092
0.437485
-0.272984
0.132201
0.265866
0.35021
0.388387
0.405415
0.411424
0.412646
0.4121
0.4112
0.410346
0.409608
0.409053
0.408689
0.408458
0.408271
0.408061
0.407798
0.407362
0.406397
0.405247
0.407826
0.419334
0.416988
-0.33196
0.0134413
0.176691
0.276576
0.326162
0.351868
0.364706
0.371255
0.374873
0.377228
0.378936
0.380246
0.381331
0.382277
0.383088
0.383728
0.384173
0.384425
0.384379
0.383652
0.382573
0.385389
0.39815
0.396185
-0.352027
-0.0602986
0.105812
0.211436
0.268859
0.301393
0.319945
0.331128
0.338463
0.343777
0.347849
0.351072
0.353709
0.355907
0.357726
0.359176
0.360268
0.361037
0.361389
0.360924
0.359966
0.363065
0.376909
0.37502
-0.361704
-0.109182
0.0499702
0.155242
0.217093
0.254637
0.277751
0.292802
0.303334
0.311248
0.317441
0.322409
0.326481
0.329855
0.332634
0.334866
0.336596
0.337882
0.338644
0.338471
0.337685
0.341086
0.355898
0.354019
-0.362972
-0.142796
0.00601759
0.107803
0.171134
0.211903
0.238465
0.256629
0.269819
0.279955
0.288003
0.294526
0.299901
0.304362
0.308044
0.311027
0.313379
0.31518
0.316362
0.316508
0.315934
0.319621
0.335262
0.333511
-0.35611
-0.165116
-0.0283441
0.0681987
0.131017
0.173351
0.202281
0.222825
0.23815
0.250129
0.259758
0.267642
0.274182
0.279636
0.284163
0.287861
0.29082
0.293132
0.294745
0.295239
0.294916
0.298863
0.315177
0.313748
-0.343609
-0.17894
-0.0547819
0.0352363
0.0963674
0.138999
0.169296
0.191515
0.208469
0.221925
0.23287
0.241921
0.249491
0.255848
0.261162
0.265545
0.269098
0.271923
0.273978
0.274852
0.274816
0.278989
0.295801
0.294982
-0.328176
-0.186522
-0.0748992
0.00799831
0.0665618
0.108624
0.139476
0.162724
0.18084
0.195429
0.207439
0.217477
0.225951
0.233128
0.239182
0.244228
0.248372
0.251718
0.254237
0.255525
0.255813
0.26015
0.27725
0.277499
-0.311549
-0.18942
-0.0901038
-0.0144172
0.0409579
0.0818539
0.112648
0.136387
0.15525
0.170665
0.183512
0.194372
0.203639
0.211568
0.218327
0.22403
0.228778
0.232673
0.235692
0.237444
0.238091
0.242476
0.25956
0.261681
-0.294452
-0.189006
-0.10141
-0.0328265
0.0189433
0.0582563
0.0885372
0.112359
0.131625
0.147596
0.161077
0.172615
0.182578
0.191205
0.198653
0.205029
0.210422
0.214927
0.218525
0.220843
0.221899
0.226065
0.242552
0.248237
-0.277271
-0.186331
-0.109624
-0.0479042
-5.35308e-05
0.0373701
0.0668185
0.0904292
0.10983
0.126128
0.14007
0.15216
0.162736
0.172019
0.180153
0.187238
0.19335
0.198571
0.202903
0.206039
0.207659
0.210905
0.22511
0.239048
-0.260227
-0.182124
-0.115509
-0.0603694
-0.0165385
0.0187633
0.0471666
0.0703469
0.0896764
0.106126
0.120382
0.132911
0.14402
0.153913
0.162726
0.170555
0.177476
0.183553
0.188801
0.193337
0.196018
0.197703
0.205601
0.238482
-0.243516
-0.177066
-0.119782
-0.0709244
-0.0309361
0.00205824
0.0292668
0.0518641
0.0709614
0.0874201
0.101868
0.114729
0.126282
0.136716
0.146162
0.154725
0.162503
0.169604
0.176083
0.18178
0.186551
0.193002
0.207592
0.214515
-0.22757
-0.171787
-0.123058
-0.0801965
-0.0435856
-0.0131083
0.0128199
0.034735
0.0534855
0.0698437
0.0843749
0.0974589
0.109343
0.120193
0.130124
0.139225
0.147578
0.15526
0.162242
0.168229
0.173375
0.181534
0.198573
0.192349
-0.212856
-0.166806
-0.125796
-0.0885116
-0.0551876
-0.0270553
-0.00244782
0.0187233
0.037057
0.0532316
0.0677541
0.0809593
0.0930609
0.104198
0.114463
0.123925
0.132645
0.140677
0.147952
0.154133
0.1595
0.168361
0.186197
0.175572
-0.199868
-0.162614
-0.128491
-0.0961842
-0.0663357
-0.0400017
-0.0168345
0.0036093
0.0214941
0.0374272
0.0518706
0.0651122
0.077333
0.0886448
0.0991199
0.108809
0.117765
0.126035
0.133549
0.139968
0.14566
0.15506
0.173349
0.161298
-0.189346
-0.1598
-0.131649
-0.103738
-0.0770866
-0.0524596
-0.0305921
-0.0107808
0.00662986
0.0222838
0.0365996
0.0498146
0.0620766
0.0734748
0.0840626
0.0938807
0.102984
0.111425
0.119118
0.125765
0.131817
0.14167
0.160272
0.148168
-0.182031
-0.159064
-0.135764
-0.111546
-0.0875789
-0.0648661
-0.0439018
-0.0247385
-0.00774219
0.00764845
0.0218211
0.0349718
0.0472215
0.0586414
0.0692717
0.0791537
0.0883463
0.0968892
0.104704
0.111567
0.117969
0.128161
0.146943
0.135676
-0.178246
-0.160962
-0.141248
-0.119993
-0.0982661
-0.0770798
-0.0570139
-0.0385557
-0.0218186
-0.00662356
0.00742374
0.0204988
0.0327073
0.0441083
0.0547373
0.06464
0.0738685
0.0824545
0.0903515
0.0973989
0.10409
0.114476
0.133269
0.123515
-0.177125
-0.165586
-0.14831
-0.12933
-0.109444
-0.0894543
-0.0701393
-0.0522044
-0.0357414
-0.0206491
-0.00668132
0.00633011
0.0184899
0.0298535
0.0404596
0.0503532
0.0595761
0.0681633
0.0760993
0.0832727
0.0901614
0.100562
0.119127
0.111436
-0.175845
-0.172056
-0.156865
-0.139728
-0.121327
-0.102258
-0.0835537
-0.0659064
-0.0495462
-0.0344917
-0.0205541
-0.00757708
0.00454567
0.0158739
0.0264519
0.036323
0.0455197
0.0540839
0.0620212
0.0692528
0.076231
0.0864276
0.10443
0.0992275
-0.1719
-0.177901
-0.166077
-0.151041
-0.134016
-0.115772
-0.0973324
-0.0795271
-0.0632833
-0.0482164
-0.0342346
-0.02124
-0.00912436
0.00218676
0.0127458
0.0226001
0.031778
0.0403144
0.0482352
0.0554849
0.0624546
0.0722044
0.0892058
0.0867428
-0.17386
-0.183023
-0.175175
-0.16269
-0.147164
-0.129635
-0.111273
-0.0935052
-0.0770929
-0.0619183
-0.0477807
-0.0346826
-0.0225145
-0.0111799
-0.000617094
0.00924153
0.0184326
0.0269749
0.0348977
0.0421755
0.0490968
0.0581893
0.0736732
0.0739512
)
;

boundaryField
{
    rotor
    {
        type            zeroGradient;
    }
    freestream
    {
        type            freestreamPressure;
        freestreamValue uniform 0;
        supersonic      false;
        value           nonuniform List<scalar> 
96
(
0.00991125
0.00683323
0.00451279
0.00306544
0.00206598
0.00127079
0.000743203
0.000557013
0.000351746
0.000152798
0.00023319
0.000155839
0.00011517
-0.000700274
-0.00222541
-0.00262414
-0.0026258
-0.00261135
-0.00252318
-0.00246121
-0.00208512
-0.00156469
-0.00078015
0.000294595
0.00178498
0.00381826
0.0065259
0.0100377
0.0144789
0.0199791
0.0266792
0.0347325
0.0442907
0.0555107
0.0685797
0.0837547
0.101504
0.122632
0.145565
0.161056
0.17923
0.200525
0.224262
0.24968
0.276381
0.304007
0.332229
0.360717
0.38912
0.417065
0.444156
0.469995
0.494184
0.516275
0.535725
0.552604
0.566715
0.577893
0.585798
0.590362
0.591409
0.589036
0.58324
0.574131
0.561859
0.546617
0.528651
0.50826
0.485766
0.461464
0.435901
0.409419
0.382299
0.354866
0.32747
0.30022
0.273682
0.248212
0.224063
0.20145
0.180565
0.161609
0.14492
0.131388
0.123005
0.103761
0.0866486
0.0732824
0.0620579
0.0522609
0.0436237
0.0359927
0.0292559
0.0233284
0.0181496
0.013683
)
;
    }
    frontAndBack
    {
        type            empty;
    }
}


// ************************************************************************* //
