/*--------------------------------*- C++ -*----------------------------------*\
  =========                 |
  \\      /  F ield         | OpenFOAM: The Open Source CFD Toolbox
   \\    /   O peration     | Website:  https://openfoam.org
    \\  /    A nd           | Version:  11
     \\/     M anipulation  |
\*---------------------------------------------------------------------------*/
FoamFile
{
    format      ascii;
    class       volVectorField;
    location    "1.36";
    object      U;
}
// * * * * * * * * * * * * * * * * * * * * * * * * * * * * * * * * * * * * * //

dimensions      [0 1 -1 0 0 0 0];

internalField   nonuniform List<vector> 
2880
(
(0.042429 0.0115671 -4.34314e-19)
(0.0694146 -0.0108587 -3.48006e-19)
(0.122758 -0.0548447 -2.46244e-21)
(0.157209 -0.0801791 -2.19565e-19)
(0.214529 -0.124948 4.74448e-20)
(0.206493 -0.118955 -2.20486e-19)
(0.0492191 -0.0130356 -2.62095e-20)
(0.0774571 -0.0375399 6.41102e-19)
(0.123855 -0.0742499 2.44777e-19)
(0.152548 -0.095327 -2.13373e-19)
(0.193099 -0.119771 -4.61685e-21)
(0.203588 -0.104957 -1.76351e-19)
(0.0485871 -0.0242323 0)
(0.0746462 -0.0494166 -2.88099e-19)
(0.113779 -0.0799471 2.05179e-19)
(0.137141 -0.0955856 2.22402e-19)
(0.165593 -0.107651 1.77879e-19)
(0.180373 -0.0925224 1.68078e-19)
(0.0462796 -0.0343924 0)
(0.0697243 -0.0574641 2.76045e-19)
(0.101121 -0.0816384 -2.19207e-19)
(0.119293 -0.0915564 2.44996e-20)
(0.139578 -0.094588 2.31946e-20)
(0.155134 -0.0780982 1.22872e-19)
(0.0441645 -0.0439622 -5.55372e-21)
(0.0638438 -0.0628752 1.01973e-20)
(0.087432 -0.0806356 0)
(0.100631 -0.0849852 0)
(0.114507 -0.0813941 -1.68408e-19)
(0.1279 -0.0633497 -3.52674e-19)
(0.0393175 -0.0525986 3.93936e-19)
(0.0568189 -0.0657018 -2.33971e-19)
(0.0730814 -0.0773951 -1.25332e-20)
(0.081609 -0.0766829 1.80041e-19)
(0.0899737 -0.068042 -1.01327e-21)
(0.0995492 -0.0485254 1.5236e-19)
(0.0253429 -0.0597275 -4.153e-19)
(0.0472967 -0.0659766 -7.94738e-21)
(0.0580988 -0.0725256 -2.56247e-20)
(0.0623919 -0.0673549 -1.53236e-19)
(0.0658088 -0.0546623 1.59482e-19)
(0.0708513 -0.0337143 -1.49038e-19)
(0.0156559 -0.0617366 -6.81538e-21)
(0.0361555 -0.0648357 -2.53254e-19)
(0.0427041 -0.0667683 0)
(0.0432056 -0.0575759 0)
(0.0421079 -0.0414294 1.99232e-20)
(0.0424328 -0.0190698 1.28101e-19)
(0.00667625 -0.0642862 -2.11941e-19)
(0.0243436 -0.0631323 2.47745e-19)
(0.0272644 -0.0607211 0)
(0.0243071 -0.0477289 0)
(0.019113 -0.0285479 0)
(0.0148712 -0.00476404 -1.07697e-19)
(-0.00150254 -0.0661456 4.37538e-19)
(0.0124872 -0.0611475 -7.84578e-21)
(0.0121107 -0.0547082 -6.36007e-21)
(0.00597456 -0.0381494 2.09808e-20)
(-0.00288598 -0.0162109 -9.36754e-21)
(-0.0113297 0.00900504 7.06619e-20)
(-0.00867527 -0.066851 -2.18919e-19)
(0.000920487 -0.0590506 -1.15118e-19)
(-0.00250601 -0.0489522 -1.01729e-19)
(-0.0115201 -0.0290742 0)
(-0.0236099 -0.00458834 7.52467e-20)
(-0.0357398 0.0220438 0)
(-0.0148962 -0.0662929 0)
(-0.0101212 -0.0569442 1.21809e-19)
(-0.016389 -0.0436142 1.43063e-19)
(-0.0279654 -0.020666 -1.05082e-20)
(-0.04282 0.00617126 -6.55876e-20)
(-0.0580097 0.0341689 0)
(-0.0203114 -0.0644701 1.7428e-21)
(-0.0204762 -0.0548637 -9.38304e-22)
(-0.0293983 -0.0388013 -3.57782e-20)
(-0.0432134 -0.0130497 1.03338e-20)
(-0.0603349 0.0159327 4.67593e-21)
(-0.077876 0.045205 -1.26726e-20)
(-0.0250696 -0.0614093 0)
(-0.0300332 -0.0528001 0)
(-0.0414565 -0.0345743 -1.19805e-20)
(-0.0571766 -0.00633072 -1.00382e-20)
(-0.0760367 0.0245668 -2.85472e-22)
(-0.0951637 0.05498 8.18859e-21)
(-0.0292952 -0.0571441 0)
(-0.0387223 -0.0507229 6.16301e-20)
(-0.0525432 -0.0309691 0)
(-0.0698258 -0.000600258 3.62603e-20)
(-0.0898749 0.0319464 -7.30599e-23)
(-0.109787 0.0633224 4.15991e-21)
(-0.0330728 -0.0518016 -2.27229e-19)
(-0.0465007 -0.0485663 -1.83153e-19)
(-0.0626927 -0.0280002 9.75656e-20)
(-0.0811886 0.00405565 -4.20383e-20)
(-0.101864 0.0379413 0)
(-0.121742 0.0700598 0)
(-0.0363875 -0.0457215 2.3129e-19)
(-0.0533459 -0.0462251 1.23058e-19)
(-0.0719935 -0.0256625 -9.97495e-20)
(-0.0913464 0.00755029 -1.07169e-20)
(-0.11208 0.0424151 9.2426e-21)
(-0.131104 0.07502 -6.63775e-20)
(-0.0390681 -0.0391805 -2.31876e-19)
(-0.0592336 -0.0435298 7.98764e-21)
(-0.0805866 -0.0239275 -1.29151e-20)
(-0.10043 0.00979381 -7.57776e-20)
(-0.120654 0.0452234 7.5192e-20)
(-0.138006 0.0780348 1.33832e-19)
(-0.0414439 -0.0303538 -2.13408e-19)
(-0.0640379 -0.0401512 0)
(-0.0886706 -0.0227296 0)
(-0.108621 0.0106916 2.66919e-19)
(-0.127764 0.0462078 -9.642e-20)
(-0.142619 0.0789428 -5.09788e-20)
(-0.0422594 -0.0200352 4.07467e-19)
(-0.0676669 -0.0356488 1.75558e-20)
(-0.0965105 -0.0219705 -2.75291e-20)
(-0.116148 0.0101303 -1.96933e-19)
(-0.13363 0.0451722 -1.37551e-19)
(-0.145115 0.0775904 -1.35874e-19)
(-0.0419409 -0.0109892 0)
(-0.0706834 -0.0298541 2.95124e-19)
(-0.104391 -0.0216022 0)
(-0.12327 0.00792513 2.16546e-19)
(-0.138483 0.0418186 3.47607e-19)
(-0.145602 0.0738542 1.4023e-19)
(-0.0413304 -0.00320978 -5.73674e-21)
(-0.0741239 -0.023142 -3.3631e-19)
(-0.11232 -0.0216742 2.62618e-19)
(-0.130216 0.00380703 -4.33356e-19)
(-0.142508 0.0357592 -1.08489e-19)
(-0.14406 0.0678933 -3.62496e-20)
(-0.0401338 0.00620137 -6.81172e-21)
(-0.0772328 -0.0146503 0)
(-0.119407 -0.021609 -5.30581e-19)
(-0.137057 -0.00193784 2.17613e-19)
(-0.145698 0.027299 0)
(-0.140213 0.0610521 -3.63526e-20)
(-0.0325627 0.0249899 -4.83889e-19)
(-0.0702533 0.00667897 3.6148e-19)
(-0.123334 -0.0107959 5.60725e-19)
(-0.144874 0.000209757 -2.26875e-19)
(-0.150494 0.0258621 1.86467e-19)
(-0.13367 0.0572794 -1.55035e-19)
(0.562786 -0.0864944 -1.15789e-19)
(0.853089 -0.113776 -3.64928e-20)
(1.02876 -0.11989 1.16638e-19)
(1.14361 -0.122501 1.05965e-19)
(1.22252 -0.122185 -7.76154e-21)
(1.27604 -0.119018 1.3762e-19)
(1.31025 -0.113895 5.12993e-20)
(1.33043 -0.108017 -8.65041e-20)
(1.34122 -0.101531 -6.14294e-20)
(1.3474 -0.0951708 2.87362e-20)
(1.34996 -0.0887234 4.00238e-20)
(1.35011 -0.0814077 3.67546e-21)
(1.34884 -0.0736113 4.94152e-20)
(1.34662 -0.0654444 -2.16151e-20)
(1.34357 -0.0569608 7.04218e-21)
(1.33962 -0.0482977 4.63326e-21)
(1.33461 -0.0396262 1.3549e-21)
(1.32828 -0.031151 -6.05033e-21)
(1.32029 -0.0231481 4.82242e-21)
(1.31009 -0.0159362 -1.02857e-20)
(1.29689 -0.00984754 -5.83028e-21)
(1.27998 -0.00598796 -7.06074e-21)
(1.2595 -0.00852877 0)
(1.23301 -0.024319 0)
(0.386624 -0.0426822 2.05579e-19)
(0.687304 -0.0691851 -1.70643e-19)
(0.906464 -0.0896711 1.41533e-19)
(1.05944 -0.103695 -2.24552e-19)
(1.16409 -0.109654 8.87048e-20)
(1.23595 -0.110083 -7.28432e-20)
(1.28411 -0.107181 -1.24499e-19)
(1.31534 -0.102845 5.35692e-20)
(1.33402 -0.0977851 4.21516e-20)
(1.34497 -0.0924003 -3.31769e-20)
(1.35169 -0.0860753 -2.20864e-20)
(1.35611 -0.0796322 3.76084e-20)
(1.35838 -0.0728926 -6.99251e-21)
(1.35893 -0.0650772 -2.35333e-20)
(1.35824 -0.0565564 -2.66082e-21)
(1.35639 -0.0476085 1.05486e-20)
(1.35338 -0.0384616 3.07327e-21)
(1.34905 -0.0293181 8.44239e-22)
(1.34309 -0.0204481 -5.89497e-21)
(1.33507 -0.0121845 8.06887e-21)
(1.32435 -0.00483695 2.19725e-21)
(1.31031 0.000699187 3.5824e-20)
(1.29298 0.00076926 -5.36491e-20)
(1.27103 -0.0138843 2.75853e-20)
(0.286945 -0.0326162 -2.50034e-19)
(0.509183 -0.0291951 3.97049e-19)
(0.72254 -0.0417323 -1.40479e-19)
(0.899793 -0.0579521 5.82149e-20)
(1.03891 -0.0718997 5.38472e-20)
(1.14585 -0.0817375 0)
(1.22094 -0.0859925 6.63651e-20)
(1.27252 -0.0867678 -5.31846e-20)
(1.30659 -0.0858525 -4.25121e-20)
(1.3285 -0.0835477 3.39212e-20)
(1.34297 -0.080048 0)
(1.35236 -0.0753372 0)
(1.35889 -0.0690451 -1.97732e-20)
(1.36403 -0.0621045 2.44416e-20)
(1.36762 -0.0543819 -3.16942e-20)
(1.36954 -0.0462025 0)
(1.36967 -0.0370939 -3.13155e-21)
(1.36817 -0.0274608 9.6351e-22)
(1.36487 -0.0177594 9.57705e-22)
(1.35953 -0.00841431 -3.52998e-21)
(1.35169 0.000272145 -1.03618e-20)
(1.34099 0.00759662 1.67747e-20)
(1.3272 0.0108553 -1.15176e-20)
(1.31218 -0.00144476 0)
(0.224635 -0.0286482 5.2718e-20)
(0.371808 -0.00622352 -4.17519e-19)
(0.540838 -0.00104091 0)
(0.702913 -0.00638247 0)
(0.846432 -0.0162308 0)
(0.968884 -0.0271667 4.48211e-20)
(1.07357 -0.0380736 -4.14139e-20)
(1.15885 -0.0478641 6.05397e-20)
(1.22258 -0.0550332 -5.61603e-20)
(1.26791 -0.0590941 4.58004e-20)
(1.3006 -0.0609222 3.17591e-20)
(1.32389 -0.0606048 -5.52468e-20)
(1.34083 -0.0583104 3.641e-21)
(1.35329 -0.0541074 3.79937e-20)
(1.36261 -0.0481225 0)
(1.36966 -0.0401988 0)
(1.37508 -0.0314211 1.29167e-20)
(1.3786 -0.0220833 -5.79706e-21)
(1.37998 -0.0125208 8.33333e-21)
(1.37885 -0.00310432 -7.92751e-22)
(1.37495 0.00657264 -8.19574e-22)
(1.36838 0.0154369 -3.21566e-21)
(1.35737 0.0215094 1.97034e-20)
(1.35273 0.0139293 -1.50548e-20)
(0.17526 -0.0222357 2.6837e-20)
(0.272934 0.00802218 1.85457e-19)
(0.393943 0.0262865 1.69308e-19)
(0.521937 0.033981 0)
(0.645108 0.034239 0)
(0.758378 0.0297848 4.83605e-20)
(0.861402 0.0219296 -4.52826e-21)
(0.953604 0.0125383 -1.11716e-19)
(1.0364 0.00229916 0)
(1.10928 -0.00813432 -4.56652e-20)
(1.17084 -0.0175413 -3.70947e-20)
(1.22144 -0.0246057 1.44362e-22)
(1.26138 -0.0285725 0)
(1.29329 -0.0297145 0)
(1.31883 -0.0280929 0)
(1.33904 -0.0240805 2.54259e-20)
(1.35453 -0.0181165 -3.71918e-20)
(1.36612 -0.0105124 3.3701e-21)
(1.3745 -0.00142841 -1.32377e-20)
(1.38003 0.00878016 6.42801e-21)
(1.38253 0.0189153 0)
(1.38238 0.0280983 0)
(1.37718 0.0363471 2.75496e-21)
(1.38203 0.0327897 0)
(0.131299 -0.0125847 -2.65313e-19)
(0.19616 0.0200135 4.77932e-20)
(0.279529 0.0451074 -1.65015e-19)
(0.37281 0.0619078 0)
(0.46819 0.0714116 6.07468e-20)
(0.560662 0.0747989 -5.59905e-20)
(0.648468 0.0733738 0)
(0.730898 0.068245 7.27528e-20)
(0.808224 0.0602146 6.6544e-20)
(0.880508 0.0506685 0)
(0.947881 0.0407233 4.19416e-20)
(1.01107 0.0313652 3.48451e-20)
(1.07101 0.0230469 0)
(1.12604 0.0165261 0)
(1.17587 0.0124067 4.1679e-20)
(1.22023 0.0111062 -5.98734e-20)
(1.25841 0.0127356 -3.75235e-21)
(1.29047 0.0169673 1.14713e-20)
(1.31664 0.0233729 -2.06078e-20)
(1.33716 0.0311097 1.03514e-20)
(1.35185 0.0398299 -4.6487e-21)
(1.36198 0.0480838 -2.5393e-21)
(1.36647 0.0591497 -7.99214e-21)
(1.38413 0.0592739 6.72809e-21)
(0.0903773 -0.000617496 -9.73369e-22)
(0.132005 0.032356 0)
(0.187442 0.0603686 0)
(0.252064 0.0821126 -1.86876e-19)
(0.321001 0.0975407 3.33278e-20)
(0.390707 0.106917 0)
(0.459224 0.11087 0)
(0.525547 0.110159 0)
(0.589719 0.105784 -6.52429e-20)
(0.651853 0.098803 -5.42201e-20)
(0.712217 0.0900291 5.50884e-21)
(0.771263 0.0807137 4.31816e-20)
(0.829197 0.0717795 3.2633e-20)
(0.886109 0.0639516 -8.94866e-20)
(0.942175 0.0580143 -4.69621e-20)
(0.997259 0.054488 8.73536e-20)
(1.05104 0.0535363 1.6545e-20)
(1.10245 0.0551321 0)
(1.15019 0.0591925 -2.24997e-20)
(1.19338 0.0653259 3.20401e-20)
(1.23036 0.0734141 -2.09275e-21)
(1.26254 0.0815896 -7.78589e-21)
(1.28243 0.0915919 -2.36354e-21)
(1.32215 0.0942287 -1.78109e-22)
(0.0519011 0.0126626 2.30066e-19)
(0.0760788 0.0455144 -6.95855e-20)
(0.110488 0.0745402 4.21324e-20)
(0.152501 0.0985279 1.84288e-19)
(0.199126 0.117043 -9.72807e-20)
(0.247934 0.129903 5.88328e-20)
(0.297419 0.137298 0)
(0.346676 0.139704 -8.33809e-20)
(0.395547 0.137902 3.76953e-20)
(0.444058 0.132772 3.14296e-20)
(0.492582 0.125331 2.67184e-20)
(0.541505 0.116628 0)
(0.591084 0.107512 0)
(0.641649 0.099019 2.90023e-22)
(0.693232 0.0919446 4.0338e-20)
(0.745871 0.0867965 -2.19695e-20)
(0.799337 0.084098 -1.0018e-20)
(0.853183 0.0842249 0)
(0.906786 0.0873407 6.94249e-21)
(0.959391 0.0933653 1.46634e-20)
(1.00957 0.102095 -7.21497e-21)
(1.05764 0.112537 0)
(1.09714 0.124483 0)
(1.15215 0.12974 1.68332e-21)
(0.0159061 0.0264823 -7.5451e-20)
(0.026486 0.0591813 0)
(0.0446891 0.0884145 0)
(0.0689281 0.113217 0)
(0.0973206 0.133075 0)
(0.128244 0.147625 0)
(0.16059 0.156799 0)
(0.193709 0.160866 8.67767e-20)
(0.227425 0.160396 3.82299e-20)
(0.261824 0.15612 1.83222e-21)
(0.297252 0.148933 -5.45362e-20)
(0.334075 0.139841 0)
(0.372721 0.129867 2.03981e-20)
(0.413544 0.119936 0)
(0.456639 0.110976 -2.75796e-20)
(0.502039 0.103877 2.55562e-20)
(0.549683 0.0992681 -9.01042e-21)
(0.599287 0.0976739 9.70329e-21)
(0.650404 0.0994587 1.83905e-20)
(0.70245 0.10476 -2.97847e-20)
(0.754553 0.113508 -1.74944e-20)
(0.806337 0.125239 1.30176e-20)
(0.85581 0.138272 9.48576e-22)
(0.913324 0.14416 0)
(-0.0173348 0.0402912 1.72782e-19)
(-0.0174796 0.0729084 -4.71847e-23)
(-0.0118833 0.102043 2.03972e-20)
(-0.00158534 0.126983 0)
(0.0121833 0.147256 0)
(0.0283221 0.162442 0)
(0.0460536 0.17231 -5.14062e-20)
(0.0649531 0.176953 -4.38294e-20)
(0.0849217 0.176751 1.61825e-21)
(0.106125 0.172263 -6.45944e-20)
(0.128947 0.164284 5.80994e-20)
(0.153839 0.153763 0)
(0.181262 0.141723 -2.02395e-20)
(0.211587 0.129216 1.84666e-20)
(0.245111 0.11729 4.23992e-20)
(0.281875 0.106924 -2.6707e-20)
(0.321859 0.0989484 0)
(0.364907 0.0940671 8.39526e-21)
(0.410686 0.0928663 -1.20958e-20)
(0.458753 0.0956628 1.16588e-20)
(0.508567 0.102417 0)
(0.559745 0.112432 0)
(0.612101 0.123112 -9.38828e-22)
(0.668212 0.127067 0)
(-0.0474822 0.053675 -9.75898e-20)
(-0.0559606 0.0862789 0)
(-0.0600169 0.115217 0)
(-0.0604113 0.14001 -1.78352e-20)
(-0.0579967 0.160256 1.64131e-20)
(-0.0535481 0.175516 -2.83659e-20)
(-0.0475843 0.185432 7.7457e-20)
(-0.0403406 0.189949 0)
(-0.0318026 0.189249 -3.93357e-20)
(-0.0217102 0.183698 -1.80737e-20)
(-0.00959631 0.173951 -1.585e-20)
(0.00508558 0.160867 0)
(0.0228872 0.145462 -1.19247e-20)
(0.0442565 0.128877 -1.84012e-20)
(0.0694919 0.112326 2.14203e-20)
(0.0986879 0.0969347 -3.59412e-20)
(0.131828 0.0837572 -1.98999e-20)
(0.16878 0.0737573 1.91099e-20)
(0.209222 0.0676868 0)
(0.25274 0.0658937 0)
(0.298799 0.0681179 0)
(0.346977 0.0730353 0)
(0.397763 0.0778253 0)
(0.454024 0.0785884 -8.58068e-23)
(-0.0742088 0.0662979 5.96756e-20)
(-0.088852 0.0989193 -1.0831e-20)
(-0.0999025 0.127635 0)
(-0.10801 0.152175 0)
(-0.113819 0.172205 1.58685e-20)
(-0.11789 0.187276 -1.46807e-20)
(-0.120531 0.19684 2.61301e-20)
(-0.121825 0.200692 4.63759e-20)
(-0.121685 0.198978 -2.14071e-20)
(-0.119715 0.191641 1.80499e-20)
(-0.115323 0.179163 3.16533e-20)
(-0.107844 0.162268 -1.49793e-20)
(-0.0966113 0.141913 1.19034e-20)
(-0.0810448 0.119321 0)
(-0.0607028 0.0960324 8.61944e-21)
(-0.0356298 0.0735139 -1.24893e-21)
(-0.00588854 0.0531129 6.88947e-21)
(0.0282952 0.0361045 0)
(0.0664138 0.0234438 0)
(0.107773 0.015589 0)
(0.151385 0.0122478 -1.88177e-21)
(0.196351 0.0121626 1.35775e-21)
(0.243709 0.0129974 -1.45948e-21)
(0.297844 0.0120838 2.87186e-23)
(-0.0972426 0.0778682 -4.74501e-20)
(-0.115966 0.110483 5.27765e-21)
(-0.131458 0.138956 -4.75044e-21)
(-0.144367 0.163199 8.70727e-21)
(-0.155224 0.18292 -8.88043e-23)
(-0.164446 0.197598 7.17044e-21)
(-0.172174 0.206604 -3.28783e-20)
(-0.17837 0.209566 -1.18518e-20)
(-0.182686 0.206093 -1.10908e-20)
(-0.184381 0.195992 0)
(-0.182834 0.179556 0)
(-0.177385 0.157426 0)
(-0.16745 0.130623 -1.38049e-20)
(-0.152545 0.100708 1.14076e-21)
(-0.13185 0.0703569 1.15217e-20)
(-0.106005 0.0401907 8.46192e-21)
(-0.0750052 0.0115891 -6.92373e-21)
(-0.0391425 -0.0137295 0)
(0.00108338 -0.0343403 0)
(0.0448677 -0.0491573 0)
(0.0910743 -0.0575487 -1.15813e-21)
(0.138806 -0.0595198 3.75064e-21)
(0.188914 -0.0566978 -6.34061e-22)
(0.242736 -0.0547417 0)
(-0.116392 0.0881178 1.81252e-22)
(-0.137136 0.120634 -1.05684e-20)
(-0.154535 0.148811 8.97643e-21)
(-0.169308 0.172711 4.77166e-24)
(-0.181909 0.192042 -7.43044e-21)
(-0.192567 0.206158 4.51169e-22)
(-0.201188 0.214262 -4.2018e-22)
(-0.207645 0.215778 0)
(-0.211447 0.210046 0)
(-0.21213 0.196824 0)
(-0.209072 0.17632 0)
(-0.201572 0.149114 1.10974e-21)
(-0.188985 0.116171 -5.52116e-23)
(-0.170742 0.0787282 -9.52729e-22)
(-0.146744 0.0375892 0)
(-0.115694 -0.0039445 0)
(-0.0781423 -0.0435041 0)
(-0.0348181 -0.0792984 4.28962e-22)
(0.0135115 -0.109603 -4.1196e-22)
(0.0659379 -0.133128 0)
(0.121714 -0.148966 0)
(0.180273 -0.156624 0)
(0.239966 -0.156504 0)
(0.295632 -0.151692 0)
(-0.131562 0.0967915 -4.00412e-20)
(-0.152279 0.129038 -5.12916e-20)
(-0.169053 0.156804 3.23709e-20)
(-0.1827 0.180252 4.22694e-20)
(-0.193661 0.199068 0)
(-0.20217 0.212515 -7.25064e-21)
(-0.207907 0.219492 6.75461e-21)
(-0.210999 0.21954 1.28202e-20)
(-0.210761 0.211535 -1.21028e-20)
(-0.206557 0.194987 1.15292e-20)
(-0.197571 0.169703 -2.17975e-20)
(-0.182854 0.136004 -1.0011e-20)
(-0.161447 0.0948095 1.9366e-20)
(-0.132624 0.0477599 1.89744e-20)
(-0.0963436 -0.00305313 0)
(-0.0530525 -0.0551454 0)
(-0.00350871 -0.105819 0)
(0.0514389 -0.152628 -8.9205e-21)
(0.110833 -0.193479 8.56497e-21)
(0.173601 -0.226897 -1.67476e-20)
(0.239112 -0.252133 1.67847e-20)
(0.30664 -0.268924 -1.47967e-20)
(0.373466 -0.276694 4.63011e-21)
(0.431268 -0.270306 0)
(-0.14276 0.103643 4.58639e-20)
(-0.161437 0.135369 4.09729e-20)
(-0.1751 0.162539 -5.52341e-20)
(-0.184724 0.185416 -1.69575e-20)
(-0.190741 0.203665 0)
(-0.193209 0.216331 0)
(-0.192047 0.222229 0)
(-0.186845 0.22079 0)
(-0.176904 0.210454 -2.59757e-20)
(-0.161415 0.190491 0)
(-0.139438 0.160447 2.41193e-20)
(-0.11015 0.120471 2.32003e-20)
(-0.072976 0.0714192 -2.36023e-20)
(-0.0278439 0.0151487 -2.03424e-20)
(0.0246024 -0.0459169 -2.22121e-20)
(0.0834014 -0.108558 -5.30003e-20)
(0.147414 -0.169464 0)
(0.21518 -0.225885 0)
(0.285042 -0.275577 0)
(0.355635 -0.31704 6.69213e-21)
(0.425901 -0.349717 -6.06445e-21)
(0.494647 -0.373939 3.25262e-21)
(0.559688 -0.389576 -2.5629e-21)
(0.612428 -0.386125 1.23785e-21)
(-0.150094 0.108439 0)
(-0.164796 0.139319 0)
(-0.172975 0.165637 7.09053e-20)
(-0.175824 0.187698 0)
(-0.173618 0.205108 0)
(-0.166362 0.216845 -2.92362e-20)
(-0.153847 0.221704 5.449e-20)
(-0.135476 0.218449 8.08234e-20)
(-0.110374 0.205643 8.03995e-20)
(-0.0777174 0.182197 -1.0489e-19)
(-0.0367125 0.14751 5.25897e-20)
(0.0129212 0.101698 -1.0234e-19)
(0.0709718 0.0458766 -2.75555e-20)
(0.136524 -0.0179159 -4.84775e-20)
(0.208068 -0.0867479 -1.08947e-19)
(0.283929 -0.157065 9.87438e-20)
(0.36234 -0.225282 6.45045e-20)
(0.441207 -0.288045 -1.15516e-19)
(0.518539 -0.342806 3.37495e-20)
(0.592621 -0.387785 6.05691e-20)
(0.661695 -0.422348 6.11602e-21)
(0.724078 -0.447137 9.8783e-21)
(0.778675 -0.463429 2.58395e-21)
(0.818867 -0.464376 -1.23991e-21)
(-0.153765 0.110971 0)
(-0.162701 0.140601 1.94604e-20)
(-0.163235 0.165747 -8.8736e-20)
(-0.156657 0.186699 -3.22049e-20)
(-0.143264 0.202987 6.00767e-20)
(-0.122973 0.213485 8.91139e-22)
(-0.0953554 0.216831 -8.27301e-20)
(-0.0596798 0.211543 -5.44652e-20)
(-0.0151251 0.196057 5.62209e-20)
(0.0388806 0.16919 5.17995e-22)
(0.102498 0.130389 5.57914e-20)
(0.17515 0.0799698 -5.19445e-22)
(0.25539 0.0194082 5.09793e-20)
(0.341287 -0.0489103 -5.12289e-20)
(0.430462 -0.121691 1.40638e-19)
(0.520642 -0.195476 -1.25823e-19)
(0.609294 -0.266524 1.50257e-19)
(0.693843 -0.331253 -6.85129e-20)
(0.772137 -0.386618 -2.50276e-20)
(0.842024 -0.430398 -1.95413e-20)
(0.901547 -0.461491 -5.2549e-20)
(0.94935 -0.479994 6.72287e-21)
(0.984986 -0.487686 4.98023e-20)
(1.00534 -0.482735 -1.55348e-20)
(-0.154051 0.111058 -1.09921e-19)
(-0.155634 0.139008 9.54076e-20)
(-0.146527 0.162573 3.41303e-20)
(-0.128353 0.182026 -3.13093e-20)
(-0.101338 0.196812 0)
(-0.0653374 0.205676 -5.73566e-20)
(-0.0198648 0.207107 5.36548e-20)
(0.0357 0.199476 0)
(0.101791 0.181224 5.70262e-20)
(0.178297 0.151294 1.58623e-21)
(0.264366 0.109403 -5.58234e-20)
(0.358255 0.0562703 -1.12814e-19)
(0.457517 -0.00627435 -1.64855e-21)
(0.559283 -0.0756539 1.55787e-19)
(0.660775 -0.148671 -4.82317e-20)
(0.759038 -0.221653 4.35759e-20)
(0.850809 -0.290829 -3.83296e-20)
(0.933243 -0.352572 -1.55172e-19)
(1.00378 -0.403746 -6.73963e-21)
(1.06037 -0.441944 9.45198e-20)
(1.10149 -0.465723 -1.51117e-20)
(1.12681 -0.475286 0)
(1.13857 -0.472213 -2.18837e-20)
(1.13683 -0.461118 1.46709e-20)
(-0.151327 0.108572 8.91857e-20)
(-0.144142 0.13436 -7.64726e-20)
(-0.123795 0.15593 -3.31077e-20)
(-0.0921959 0.173482 3.03441e-20)
(-0.0496333 0.186389 -1.10695e-19)
(0.00393492 0.193269 0)
(0.0687688 0.192517 -5.55676e-20)
(0.145018 0.182489 -5.38319e-20)
(0.232351 0.161793 -5.65516e-20)
(0.329686 0.129666 -1.16147e-19)
(0.43509 0.0862282 5.44413e-20)
(0.545807 0.0325768 -3.47687e-21)
(0.658799 -0.0293662 2.1204e-19)
(0.770829 -0.0968374 -5.18049e-20)
(0.878294 -0.16662 4.82773e-20)
(0.977511 -0.235053 -8.31814e-20)
(1.06503 -0.298304 3.83756e-20)
(1.13764 -0.352819 1.50031e-19)
(1.19315 -0.39567 6.81839e-21)
(1.23017 -0.424905 -8.96378e-20)
(1.24835 -0.439047 -3.44812e-20)
(1.25007 -0.438362 7.65945e-20)
(1.24245 -0.43165 -8.53111e-21)
(1.22228 -0.411927 -1.36777e-20)
(-0.146047 0.103409 -2.23613e-20)
(-0.128976 0.126572 3.62155e-20)
(-0.0959566 0.145723 -3.26602e-20)
(-0.0493554 0.16105 0)
(0.0102696 0.171845 1.11212e-19)
(0.0825587 0.176634 0)
(0.167208 0.173792 -5.37293e-20)
(0.263569 0.161786 1.56641e-19)
(0.370349 0.139501 0)
(0.485495 0.106579 0)
(0.60622 0.0633474 1.09555e-19)
(0.729216 0.0111968 -1.08597e-19)
(0.850923 -0.0477224 -1.05602e-19)
(0.967061 -0.110658 0)
(1.07361 -0.174324 0)
(1.16671 -0.235091 8.33158e-20)
(1.24253 -0.289328 -1.29437e-19)
(1.29835 -0.333835 2.30046e-19)
(1.33336 -0.366242 -1.0156e-19)
(1.34762 -0.385654 0)
(1.34297 -0.390699 0)
(1.33045 -0.387767 -2.63475e-20)
(1.30573 -0.37573 2.56213e-20)
(1.26845 -0.347616 0)
(-0.139191 0.0957539 0)
(-0.111042 0.115553 -1.40185e-19)
(-0.063837 0.131899 3.06356e-20)
(-0.000648961 0.144877 1.35644e-19)
(0.0773715 0.153651 4.8816e-20)
(0.169115 0.156678 -5.13531e-20)
(0.27341 0.152371 9.91082e-20)
(0.388643 0.139378 -4.79705e-20)
(0.512565 0.1169 -9.73243e-20)
(0.642538 0.0846532 9.79548e-20)
(0.774764 0.0435406 -2.00403e-19)
(0.905165 -0.00502036 9.79389e-20)
(1.02924 -0.0588151 9.43564e-20)
(1.14254 -0.114984 8.35614e-20)
(1.24076 -0.170345 -2.45858e-19)
(1.31962 -0.221447 8.28592e-20)
(1.37613 -0.265089 1.67376e-19)
(1.40947 -0.298888 -1.07339e-19)
(1.42138 -0.321484 -6.96332e-20)
(1.41396 -0.332882 1.17336e-19)
(1.39611 -0.334857 -1.36819e-20)
(1.36669 -0.328151 -3.35214e-20)
(1.3294 -0.312795 0)
(1.2839 -0.282639 1.12565e-21)
(-0.132862 0.085885 1.92334e-19)
(-0.0914573 0.100891 2.78278e-19)
(-0.0279419 0.114324 0)
(0.0537586 0.12529 -1.08624e-19)
(0.15158 0.132686 -1.00887e-19)
(0.26336 0.134884 0)
(0.386883 0.130349 0)
(0.519547 0.117855 0)
(0.658655 0.0966627 9.77095e-20)
(0.799821 0.0670497 -9.82804e-20)
(0.938237 0.029804 1.91873e-19)
(1.06954 -0.0134355 -1.79623e-19)
(1.18882 -0.0604052 8.57659e-20)
(1.29118 -0.108463 0)
(1.37212 -0.154488 5.74143e-20)
(1.42869 -0.195473 -1.73931e-19)
(1.46065 -0.229094 5.2465e-20)
(1.47056 -0.253997 7.29802e-20)
(1.46241 -0.269806 -1.25067e-19)
(1.44138 -0.276975 5.28245e-20)
(1.41068 -0.276323 5.40513e-20)
(1.37347 -0.268766 -5.14789e-20)
(1.3311 -0.253334 0)
(1.28184 -0.223114 0)
(-0.128672 0.07005 -1.7339e-19)
(-0.0709645 0.0809916 -2.39655e-19)
(0.0121061 0.0927901 8.22248e-20)
(0.11475 0.103003 0)
(0.233912 0.110447 8.89761e-20)
(0.366216 0.11345 0)
(0.508383 0.110419 0)
(0.657189 0.100148 6.46627e-21)
(0.80757 0.0821782 -1.66806e-19)
(0.954011 0.0567324 -6.00342e-21)
(1.09214 0.0247492 2.45303e-19)
(1.21666 -0.0121853 7.30284e-20)
(1.32209 -0.0518663 1.36481e-19)
(1.40399 -0.0916166 -7.66474e-20)
(1.4599 -0.128787 1.6062e-19)
(1.49055 -0.161155 -1.03739e-19)
(1.4995 -0.187292 3.48722e-20)
(1.49144 -0.206477 0)
(1.47074 -0.218482 2.03587e-20)
(1.44097 -0.223461 0)
(1.40517 -0.222195 0)
(1.36482 -0.214789 2.0693e-20)
(1.32059 -0.199641 -1.96954e-20)
(1.26986 -0.170246 0)
(-0.0407525 0.0163082 -6.45442e-19)
(-0.104173 -0.00238778 -5.3599e-19)
(-0.175926 -0.0421014 6.92125e-22)
(-0.203353 -0.0555681 -2.96314e-19)
(-0.207396 -0.0529988 5.34161e-20)
(-0.182407 -0.0182566 -2.29067e-19)
(-0.0744717 0.00763836 -3.90213e-20)
(-0.148428 -0.0190219 9.88218e-19)
(-0.205769 -0.0521296 3.57248e-19)
(-0.219746 -0.0611674 -2.78113e-19)
(-0.211318 -0.0623879 -3.32076e-21)
(-0.17518 -0.0430433 -1.76527e-19)
(-0.0933696 0.00477714 0)
(-0.169839 -0.0205828 -4.44657e-19)
(-0.217248 -0.0523185 2.90293e-19)
(-0.22319 -0.0642204 2.93798e-19)
(-0.204409 -0.0697617 2.0874e-19)
(-0.161525 -0.0607887 1.66722e-19)
(-0.110981 0.00288787 0)
(-0.186822 -0.0202289 4.12959e-19)
(-0.225363 -0.0493995 -3.13934e-19)
(-0.22399 -0.0652477 3.04718e-20)
(-0.195569 -0.0745019 2.32806e-20)
(-0.143668 -0.0727842 1.23229e-19)
(-0.128584 -0.000365362 -7.97753e-21)
(-0.201563 -0.0203263 1.28682e-20)
(-0.231837 -0.0460542 0)
(-0.223317 -0.0644673 0)
(-0.185528 -0.0768348 -1.99863e-19)
(-0.122008 -0.0799507 -3.65496e-19)
(-0.146509 -0.00270791 5.68452e-19)
(-0.213873 -0.0212132 -3.41665e-19)
(-0.236775 -0.0425211 -1.83818e-20)
(-0.221551 -0.0622935 2.38861e-19)
(-0.174224 -0.0767257 -2.92283e-21)
(-0.0970588 -0.0825609 1.6304e-19)
(-0.166054 0.000675351 -6.00885e-19)
(-0.223052 -0.0206931 -1.15333e-20)
(-0.240333 -0.0385927 -3.55902e-20)
(-0.218911 -0.0586618 -2.05339e-19)
(-0.161771 -0.0741475 1.97266e-19)
(-0.0692853 -0.081029 -1.68555e-19)
(-0.178178 0.00124142 -9.92061e-21)
(-0.229742 -0.0187067 -3.63346e-19)
(-0.242791 -0.033958 0)
(-0.215735 -0.0535729 0)
(-0.148523 -0.0691632 2.45395e-20)
(-0.0393898 -0.0757962 1.47086e-19)
(-0.189004 0.00232274 -3.08821e-19)
(-0.234677 -0.0155751 3.58373e-19)
(-0.244451 -0.0283953 0)
(-0.212372 -0.0470091 0)
(-0.135029 -0.0619144 0)
(-0.00831651 -0.0673708 -1.30634e-19)
(-0.198473 0.00365382 6.38295e-19)
(-0.238195 -0.0113879 -1.12246e-20)
(-0.245584 -0.021758 -8.90544e-21)
(-0.209217 -0.0389802 3.02832e-20)
(-0.121991 -0.0525822 -1.3278e-20)
(0.0228014 -0.0563282 8.94502e-20)
(-0.205846 0.00498554 -3.19822e-19)
(-0.240502 -0.0061726 -1.68927e-19)
(-0.246447 -0.0139496 -1.53536e-19)
(-0.206695 -0.0295194 0)
(-0.110212 -0.0413378 1.08682e-19)
(0.0527173 -0.0431749 0)
(-0.210729 0.0063299 0)
(-0.241755 3.86411e-05 1.80792e-19)
(-0.247273 -0.00492125 2.17999e-19)
(-0.20524 -0.018681 -1.56633e-20)
(-0.100576 -0.0283195 -9.56683e-20)
(0.0800771 -0.0282526 0)
(-0.212963 0.00784128 2.5263e-21)
(-0.242075 0.00719351 -1.43201e-21)
(-0.248268 0.00532061 -5.4976e-20)
(-0.205256 -0.00654002 1.61864e-20)
(-0.0940108 -0.0136113 6.96801e-21)
(0.103521 -0.0118973 -1.88136e-20)
(-0.212526 0.00981047 0)
(-0.241517 0.0152248 0)
(-0.249557 0.0166942 -1.86572e-20)
(-0.207099 0.00679767 -1.58135e-20)
(-0.0914398 0.00263611 -4.5479e-22)
(0.121876 0.0054088 1.22494e-20)
(-0.20952 0.0127955 0)
(-0.240108 0.0240402 9.43758e-20)
(-0.251213 0.0290618 0)
(-0.210953 0.0211429 5.90077e-20)
(-0.0935858 0.0201772 8.82474e-23)
(0.13373 0.0230071 6.61532e-21)
(-0.204629 0.0180423 -3.36046e-19)
(-0.237956 0.0334322 -2.82252e-19)
(-0.253276 0.0422418 1.55428e-19)
(-0.216854 0.0361717 -6.80754e-20)
(-0.100922 0.0387731 0)
(0.137795 0.0401713 0)
(-0.199034 0.0284267 3.42079e-19)
(-0.235235 0.0428416 1.89836e-19)
(-0.255624 0.0559333 -1.57674e-19)
(-0.224668 0.0515465 -1.74118e-20)
(-0.113914 0.0581167 1.5486e-20)
(0.133 0.0560167 -1.12111e-19)
(-0.185968 0.0451613 -3.21653e-19)
(-0.231548 0.0507332 1.24801e-20)
(-0.257845 0.0696536 -2.0501e-20)
(-0.234021 0.0669525 -1.25949e-19)
(-0.132767 0.0778997 1.26384e-19)
(0.118555 0.069608 2.28713e-19)
(-0.171548 0.0459702 -2.66952e-19)
(-0.225566 0.0552639 0)
(-0.259089 0.0829201 0)
(-0.244232 0.082196 4.40427e-19)
(-0.157347 0.0979559 -1.60705e-19)
(0.0940991 0.0800844 -8.76818e-20)
(-0.155131 0.0409589 5.10367e-19)
(-0.216187 0.0578959 2.65162e-20)
(-0.258382 0.0957076 -4.24995e-20)
(-0.254312 0.0973712 -3.19451e-19)
(-0.187078 0.118336 -2.31611e-19)
(0.0593405 0.0868526 -2.51155e-19)
(-0.134074 0.0373735 0)
(-0.202546 0.0593348 4.27284e-19)
(-0.254709 0.107989 0)
(-0.263302 0.112688 3.54873e-19)
(-0.220814 0.139498 5.79215e-19)
(0.0144973 0.090096 2.43051e-19)
(-0.114811 0.0324876 -8.82833e-21)
(-0.185046 0.059209 -4.80951e-19)
(-0.247533 0.119446 3.97162e-19)
(-0.269944 0.126914 -7.0035e-19)
(-0.257017 0.163327 -1.70375e-19)
(-0.0404607 0.0888179 -6.4824e-20)
(-0.0938961 0.0250913 -1.00794e-20)
(-0.162309 0.056052 0)
(-0.235477 0.128198 -7.98256e-19)
(-0.26944 0.134443 3.49155e-19)
(-0.298902 0.19545 0)
(-0.0968857 0.073993 -5.172e-20)
(-0.0533729 0.00393322 6.7956e-19)
(-0.116599 0.0342049 1.58381e-20)
(-0.201763 0.121201 4.21206e-19)
(-0.234345 0.123857 -4.16054e-19)
(-0.334066 0.252507 1.32854e-19)
(-0.113847 0.0624732 -4.34911e-19)
(-0.129626 0.0407241 0)
(-0.0478458 0.0541707 1.35394e-19)
(0.0584507 0.0678163 -1.123e-19)
(0.184548 0.0796299 9.30319e-20)
(0.326363 0.0893411 -1.73468e-19)
(0.479322 0.0952732 3.72723e-20)
(0.639115 0.095747 -4.35045e-20)
(0.799748 0.0895463 1.60875e-19)
(0.955001 0.076191 2.88262e-21)
(1.10012 0.0558281 -8.33395e-20)
(1.2294 0.0293613 -5.72648e-21)
(1.33712 -0.00151536 -1.45191e-19)
(1.41915 -0.034562 1.77269e-19)
(1.47412 -0.0672864 -2.74609e-19)
(1.50369 -0.0977872 -3.98308e-20)
(1.51263 -0.124271 1.21185e-20)
(1.50577 -0.145776 3.10619e-20)
(1.48714 -0.161629 -2.14134e-20)
(1.45971 -0.171529 -1.07304e-20)
(1.42626 -0.175651 2.77654e-20)
(1.38858 -0.174374 5.61166e-21)
(1.34746 -0.16754 -6.85272e-21)
(1.30304 -0.152998 6.04135e-21)
(1.25203 -0.124938 2.73258e-21)
(-0.115573 0.00321142 1.85892e-19)
(-0.0155302 0.024577 -1.34979e-19)
(0.114999 0.0421787 1.06846e-19)
(0.266146 0.0581872 -1.83307e-19)
(0.431188 0.0726929 8.44598e-20)
(0.603845 0.083786 -7.97681e-20)
(0.776629 0.0895145 -1.47153e-19)
(0.942271 0.0884949 7.10791e-20)
(1.09526 0.0800001 6.59041e-20)
(1.22944 0.0642307 -6.19976e-20)
(1.33921 0.0422885 -6.10335e-20)
(1.42117 0.0160097 1.03971e-19)
(1.4753 -0.0121991 -9.19452e-21)
(1.50443 -0.0404572 -8.8784e-20)
(1.51424 -0.0664715 -3.39698e-20)
(1.50927 -0.0892819 6.03567e-20)
(1.49336 -0.107865 1.71862e-20)
(1.4691 -0.12162 -3.12247e-20)
(1.4387 -0.130312 1.79273e-20)
(1.40416 -0.134115 -2.15202e-20)
(1.36645 -0.133203 -3.75319e-21)
(1.32584 -0.12713 3.71899e-23)
(1.282 -0.113305 -1.06103e-20)
(1.23135 -0.0868876 8.96687e-21)
(-0.0926553 -0.0275832 -2.25808e-19)
(0.0285959 -0.00268829 3.08869e-19)
(0.1849 0.0200419 -1.07291e-19)
(0.36183 0.0426338 4.68337e-20)
(0.549209 0.0641672 4.00084e-20)
(0.736801 0.082049 0)
(0.915352 0.0937323 7.15866e-20)
(1.07805 0.0974456 -6.54359e-20)
(1.21823 0.0925568 -6.17424e-20)
(1.33069 0.0795609 6.21059e-20)
(1.4132 0.0600404 0)
(1.46719 0.0363607 0)
(1.49685 0.0108047 -3.25146e-20)
(1.508 -0.01423 5.67031e-20)