/*--------------------------------*- C++ -*----------------------------------*\
  =========                 |
  \\      /  F ield         | OpenFOAM: The Open Source CFD Toolbox
   \\    /   O peration     | Website:  https://openfoam.org
    \\  /    A nd           | Version:  11
     \\/     M anipulation  |
\*---------------------------------------------------------------------------*/
FoamFile
{
    format      ascii;
    class       volScalarField;
    location    "1.76";
    object      epsilon;
}
// * * * * * * * * * * * * * * * * * * * * * * * * * * * * * * * * * * * * * //

dimensions      [0 2 -3 0 0 0 0];

internalField   nonuniform List<scalar> 
2880
(
2.23056
4.32132
6.49817
7.12724
7.33887
31.8879
0.934564
2.11966
3.45306
4.41991
5.15576
9.36597
0.249915
1.74473
2.79452
3.62459
4.12233
5.07779
0.269834
1.6633
2.51988
3.12535
3.31481
3.35035
0.280327
1.6708
2.35542
2.71038
2.65278
2.4138
1.27381
1.69377
2.23076
2.36971
2.15406
1.78105
1.37339
1.70988
2.12523
2.10825
1.77334
1.3723
1.45297
1.71703
2.03128
1.90715
1.48863
1.0998
1.51031
1.71378
1.94927
1.74196
1.27947
0.911607
1.54687
1.69823
1.87787
1.60584
1.12551
0.777533
1.5661
1.67177
1.816
1.49896
1.01067
0.679762
1.5733
1.63682
1.76268
1.42034
0.92517
0.607592
1.57165
1.59573
1.71854
1.3674
0.862913
0.554357
1.54725
1.54994
1.68562
1.33687
0.820174
0.515776
1.49469
1.50025
1.66382
1.33014
0.795012
0.489172
1.41504
1.4463
1.65208
1.34151
0.788369
0.473061
1.31577
1.38616
1.64829
1.37586
0.798919
0.466985
1.21374
1.31582
1.64823
1.43366
0.83339
0.471659
0.280314
1.22732
1.64892
1.51567
0.900748
0.48962
0.268504
1.13893
1.64573
1.62167
1.0181
0.52712
0.250061
1.03986
1.63593
1.74953
1.21841
0.600145
0.226198
0.952855
1.60478
1.91266
1.56594
0.75866
0.840053
0.945531
1.56692
2.1692
2.17667
1.2258
1.89471
1.52724
1.90144
2.85691
3.22798
2.9902
14.8108
5.02246
2.12005
1.01456
0.520908
0.282225
0.16075
0.0959054
0.0596658
0.0385542
0.0258013
0.0178504
0.0127534
0.00940286
0.00714874
0.00559828
0.00450776
0.00372164
0.00313713
0.00268229
0.00230162
0.00194997
0.0015967
0.00109325
6.43854
2.9555
1.46621
0.74707
0.394152
0.217407
0.125574
0.0757296
0.0474921
0.0308677
0.0207457
0.0143978
0.0103097
0.007612
0.00579046
0.00453257
0.00364366
0.00299928
0.00251743
0.00214099
0.00182618
0.00153824
0.0012512
0.000867782
3.77013
2.05546
1.06807
0.556521
0.299676
0.168368
0.0986935
0.0601739
0.038036
0.0248639
0.0167822
0.0116857
0.0083901
0.00620854
0.00473185
0.00371016
0.00298727
0.00246325
0.00207219
0.00176783
0.00151352
0.00128019
0.00105218
0.000768376
2.53583
1.45166
0.777119
0.416221
0.229645
0.131533
0.078208
0.0481727
0.0306733
0.0201589
0.0136629
0.00954587
0.00687404
0.00510082
0.00389832
0.00306532
0.00247555
0.00204799
0.001729
0.00148059
0.00127225
0.00108106
0.000899242
0.000688077
1.74841
1.03706
0.573099
0.315821
0.17831
0.103912
0.0625617
0.0388812
0.0249178
0.0164558
0.0111958
0.00784756
0.00566791
0.00421815
0.00323354
0.00255078
0.00206706
0.0017162
0.00145433
0.00125027
0.001079
0.000923068
0.00077948
0.000622272
1.26568
0.763245
0.432577
0.24418
0.140544
0.0830892
0.0505495
0.0316532
0.0203977
0.0135272
0.00923434
0.00649165
0.00470159
0.00350892
0.00269803
0.0021354
0.00173667
0.00144748
0.00123177
0.00106394
0.000923628
0.000797676
0.000685546
0.000568924
0.954117
0.579707
0.334766
0.192536
0.112507
0.0672739
0.0412704
0.0260005
0.0168307
0.0112002
0.00766722
0.0054034
0.00392305
0.00293564
0.00226405
0.00179815
0.00146821
0.00122925
0.00105148
0.000913794
0.000799584
0.00069886
0.000612123
0.000526002
0.747054
0.454371
0.265619
0.154808
0.0914667
0.0551601
0.0340544
0.0215552
0.0140018
0.00934256
0.00640958
0.00452626
0.00329329
0.00247066
0.00191142
0.00152397
0.00125017
0.00105251
0.000906197
0.000793696
0.000701387
0.000621567
0.000554974
0.000491649
0.605176
0.366756
0.215795
0.126827
0.0754932
0.0457987
0.0284036
0.0180393
0.0117473
0.00785322
0.00539646
0.00381698
0.00278262
0.00209294
0.00162483
0.00130138
0.00107367
0.000910163
0.000790004
0.0006985
0.00062438
0.000561574
0.000510673
0.000464252
0.505103
0.304007
0.179176
0.105751
0.063224
0.0384997
0.0239475
0.0152428
0.00994212
0.00665452
0.00457777
0.00324211
0.00236796
0.00178605
0.00139221
0.00112119
0.000931466
0.000796227
0.000697771
0.00062365
0.000564446
0.000515265
0.000476424
0.000442468
0.43281
0.258057
0.151757
0.0896451
0.0536944
0.0327597
0.02041
0.0130066
0.00849056
0.00568651
0.00391456
0.0027755
0.00203111
0.00153691
0.00120379
0.000975847
0.00081746
0.000705602
0.000625071
0.00056521
0.000518088
0.000479672
0.000450018
0.000425226
0.379643
0.223769
0.130883
0.0771714
0.0462156
0.0282094
0.017584
0.0112097
0.007319
0.00490267
0.00337638
0.00239646
0.00175757
0.00133497
0.0010516
0.000859078
0.000726524
0.000633937
0.000568113
0.000519844
0.000482406
0.000452419
0.000429741
0.000411685
0.340146
0.197807
0.114767
0.0673957
0.0402906
0.0245759
0.0153141
0.00975997
0.00637064
0.00426674
0.00293922
0.00208857
0.00153567
0.0011716
0.000929043
0.000765648
0.000654341
0.000577563
0.000523718
0.000484792
0.000455057
0.000431647
0.000414278
0.000401175
0.310785
0.177954
0.102177
0.0596537
0.0355574
0.0216563
0.0134826
0.00858671
0.00560151
0.00375035
0.00258414
0.0018387
0.00135596
0.00103979
0.000830697
0.000691206
0.000597313
0.000533425
0.000489268
0.00045782
0.00043419
0.000415914
0.000402611
0.000393153
0.289235
0.162706
0.0922511
0.0534658
0.0317491
0.0192988
0.0120004
0.00763576
0.00497753
0.00333127
0.00229611
0.00163631
0.00121082
0.000933798
0.000752087
0.000632154
0.000552466
0.000499023
0.000462644
0.000437152
0.000418355
0.000404109
0.00039395
0.00038717
0.273977
0.151019
0.0843731
0.0484811
0.0286676
0.0173894
0.0107998
0.00686553
0.00447222
0.00299208
0.00206325
0.00147301
0.00109407
0.000848933
0.000689544
0.000585539
0.000517371
0.000472337
0.000442163
0.000421392
0.00040642
0.000395363
0.000387664
0.000382845
0.26407
0.142169
0.0781016
0.0444399
0.0261653
0.0158423
0.00982938
0.00624416
0.00406515
0.00271916
0.00187616
0.00134209
0.00100076
0.000781405
0.000640078
0.000548948
0.000490057
0.000451748
0.000426496
0.000409449
0.000397491
0.000388965
0.000383228
0.000379846
0.259015
0.135659
0.0731283
0.0411491
0.0241325
0.0145937
0.00905063
0.00574747
0.00374061
0.00250199
0.00172753
0.00123828
0.000926966
0.000728188
0.000601288
0.000520436
0.000468934
0.000435958
0.000414593
0.000400467
0.000390858
0.000384307
0.000380163
0.000377833
0.258775
0.130988
0.0691441
0.0384658
0.0224892
0.0135971
0.00843508
0.00535741
0.00348673
0.0023325
0.00161173
0.00115751
0.000869643
0.000686945
0.000571319
0.000498501
0.000452774
0.000423968
0.000405647
0.000393817
0.000386042
0.000380995
0.000378039
0.000376482
0.263938
0.127818
0.0658811
0.0362962
0.0211797
0.0128199
0.00796264
0.00506093
0.00329481
0.00220471
0.00152452
0.00109672
0.000826517
0.000655934
0.000548809
0.000482059
0.000440702
0.000415067
0.000399078
0.000389021
0.000382666
0.000378756
0.000376653
0.000375655
0.276019
0.12585
0.063155
0.0345457
0.0201683
0.0122421
0.00762025
0.00484922
0.00315873
0.00211434
0.00146285
0.00105368
0.000795919
0.000633881
0.000532767
0.000470324
0.000432089
0.000408737
0.000394441
0.000385683
0.000380372
0.000377333
0.000375857
0.000375225
0.29789
0.124657
0.0608032
0.0331568
0.019441
0.011855
0.00740106
0.00471706
0.00307468
0.00205861
0.00142468
0.00102685
0.000776686
0.000619876
0.000522468
0.000462715
0.000426464
0.000404592
0.000391415
0.000383529
0.000378926
0.000376511
0.000375425
0.00037505
0.333015
0.123313
0.0586814
0.032128
0.0190066
0.0116596
0.00730347
0.00466235
0.0030408
0.00203603
0.00140886
0.00101538
0.000768131
0.000613365
0.000517453
0.000458855
0.000423518
0.00040238
0.000389793
0.000382389
0.000378212
0.000376141
0.000375261
0.000375003
0.376166
0.119752
0.0567321
0.0315302
0.018897
0.0116649
0.00732787
0.00468346
0.00305534
0.00204521
0.00141437
0.00101852
0.000769773
0.000614051
0.000517538
0.00045859
0.00042312
0.000401999
0.000389523
0.000382252
0.000378177
0.000376154
0.000375286
0.000375016
2.18122
2.81141
4.2373
4.02179
3.41711
2.86443
0.907874
2.17628
2.65361
2.21378
1.56133
0.878988
0.247259
1.94781
2.04061
1.46397
0.92423
0.480273
0.280849
1.86525
1.72959
1.13583
0.692054
0.375503
1.56994
1.80427
1.5362
0.976537
0.599202
0.347408
1.91833
1.74431
1.41226
0.900982
0.567993
0.350446
2.21638
1.68917
1.33583
0.873581
0.570399
0.371027
2.46054
1.65102
1.29448
0.876721
0.595031
0.405853
2.65131
1.63114
1.28102
0.902998
0.639203
0.453863
2.79099
1.62678
1.28795
0.949372
0.700424
0.516048
2.88237
1.63657
1.31608
1.0133
0.778955
0.5945
2.92788
1.65976
1.36248
1.09422
0.876094
0.692262
2.92881
1.69709
1.42574
1.19225
0.99378
0.813273
2.91765
1.75334
1.50499
1.30766
1.13426
0.962308
2.88797
1.82449
1.59875
1.4403
1.29961
1.14483
2.83155
1.90385
1.70418
1.58884
1.49091
1.36644
2.74016
1.98196
1.81654
1.7501
1.70713
1.6314
2.60454
2.04565
1.9289
1.91866
1.9438
1.94148
2.41351
2.07786
2.03333
2.08396
2.19592
2.30978
2.15334
2.06673
2.11779
2.24624
2.45356
2.75077
1.81113
2.00577
2.19608
2.41264
2.71578
3.30036
1.38464
1.91135
2.32743
2.64054
3.04036
4.08013
1.04054
2.0088
2.7607
3.19074
3.69463
5.45556
2.78516
3.76331
5.21123
5.76106
5.79101
6.19793
0.328554
0.110773
0.0551945
0.0315395
0.0191654
0.0118941
0.00748893
0.00479011
0.00312464
0.00209014
0.00144365
0.00103772
0.000782382
0.00062229
0.00052286
0.000461996
0.000425308
0.000403447
0.000390531
0.000382994
0.000378718
0.000376513
0.000375495
0.000375088
0.240533
0.102526
0.0549673
0.0323896
0.0198647
0.012366
0.00779374
0.00498531
0.00325021
0.00217175
0.00149737
0.00107352
0.000806475
0.000638571
0.00053385
0.000469399
0.000430317
0.000406896
0.000392969
0.000384752
0.000379969
0.000377284
0.000375927
0.000375285
0.200941
0.100135
0.0567001
0.0341451
0.0210349
0.0131038
0.00825674
0.00527837
0.00343818
0.00229418
0.00157838
0.00112795
0.000843489
0.000663939
0.000551282
0.000481383
0.000438586
0.000412668
0.000397066
0.000387681
0.000382014
0.000378613
0.000376702
0.000375699
0.189591
0.103033
0.0606117
0.036851
0.0227163
0.0141368
0.00889784
0.00568258
0.00369747
0.00246345
0.00169084
0.00120389
0.0008955
0.000699916
0.000576299
0.000498819
0.000450782
0.00042127
0.000403207
0.000392087
0.000385111
0.000380682
0.000378016
0.000376458
0.192905
0.110807
0.0665317
0.040571
0.0249681
0.0155066
0.00974489
0.00621639
0.00404038
0.00268791
0.00184046
0.00130537
0.000965375
0.000748599
0.000610473
0.000522906
0.000467822
0.000433407
0.000411937
0.000398402
0.000389616
0.00038378
0.000380037
0.000377718
0.206594
0.122962
0.0745404
0.0454367
0.0278837
0.0172739
0.0108369
0.00690515
0.00448367
0.00297883
0.00203502
0.00143782
0.00105701
0.000812839
0.000655936
0.000555272
0.000490967
0.000450063
0.000424032
0.000407241
0.000396006
0.000388222
0.000382914
0.000379572
0.229194
0.139495
0.0849448
0.0516758
0.0316057
0.0195261
0.012228
0.00778334
0.00504989
0.00335137
0.00228491
0.00160855
0.00117566
0.000896505
0.00071561
0.000598173
0.00052199
0.000472629
0.000440566
0.000419401
0.000404825
0.000394373
0.000387045
0.000382283
0.260448
0.161029
0.0982934
0.0596383
0.036342
0.0223863
0.0139929
0.00889763
0.00576923
0.00382565
0.00260396
0.00182731
0.00132835
0.0010048
0.000793439
0.000654671
0.000563299
0.000503005
0.000463014
0.000436001
0.000416918
0.000402912
0.000392969
0.000386227
0.301192
0.188722
0.115423
0.069836
0.0423895
0.0260265
0.0162339
0.0103111
0.00668202
0.0044284
0.00301045
0.00210697
0.00152439
0.00114461
0.000894633
0.00072879
0.000618056
0.000543693
0.000493353
0.000458589
0.000433482
0.000414725
0.000401279
0.000391751
0.353275
0.224325
0.137545
0.0830034
0.0501702
0.0306881
0.0190922
0.0121093
0.0078423
0.0051951
0.0035285
0.00246445
0.001776
0.00132495
0.00102601
0.000825785
0.000690386
0.000597979
0.000534211
0.000489245
0.00045611
0.000430948
0.000412715
0.000399259
0.419508
0.27032
0.166388
0.100192
0.0602856
0.0367111
0.0227636
0.0144093
0.00932289
0.006173
0.00419001
0.00292202
0.00209916
0.00155764
0.00119649
0.000952541
0.000785709
0.000670197
0.000589083
0.000530765
0.00048696
0.000453128
0.000428282
0.000409265
0.503748
0.330147
0.204393
0.122911
0.0736012
0.0445808
0.0275239
0.0173729
0.0112229
0.00742549
0.00503722
0.00350893
0.00251485
0.00185813
0.00141775
0.00111808
0.00091114
0.000766057
0.000662596
0.000586885
0.000528959
0.000483403
0.000449369
0.000422446
0.611072
0.40848
0.255
0.153332
0.0913729
0.0549983
0.0337662
0.021227
0.0136787
0.00903843
0.00612664
0.00426392
0.00305059
0.00224663
0.00170505
0.00133421
0.001076
0.000893054
0.000760847
0.00066256
0.000586046
0.000524703
0.000477905
0.000439705
0.747962
0.511583
0.323004
0.194582
0.115435
0.0689885
0.0420594
0.0262947
0.0168813
0.0111297
0.00753452
0.00523853
0.00374265
0.00274958
0.00207829
0.00161632
0.00129248
0.00106101
0.000891847
0.000764342
0.00066348
0.000581014
0.000516557
0.00046226
0.922486
0.647647
0.414982
0.251121
0.148474
0.0880637
0.0532389
0.033044
0.0211016
0.0138636
0.00936521
0.00650217
0.00463924
0.00340181
0.00256352
0.00198447
0.00157644
0.00128273
0.00106609
0.000900866
0.00076826
0.000657716
0.000568981
0.000491751
1.14452
0.827021
0.539676
0.329188
0.19439
0.114464
0.0685441
0.0421625
0.0267322
0.0174733
0.0117639
0.00814965
0.00580514
0.00424947
0.00319489
0.00246485
0.00194854
0.0015749
0.00129729
0.00108349
0.000909682
0.000762054
0.00064017
0.000530341
1.42604
1.06231
0.708178
0.437209
0.258741
0.151488
0.0898261
0.0546748
0.03435
0.0222959
0.0149366
0.0103129
0.00732883
0.00535462
0.00401776
0.00309184
0.0024357
0.00195923
0.00160334
0.00132712
0.00110011
0.000903837
0.00073697
0.000580807
1.77987
1.36889
0.933776
0.585942
0.349154
0.203913
0.119841
0.0721188
0.0448167
0.0288277
0.019181
0.013179
0.00933367
0.00680234
0.00509335
0.00391127
0.00307352
0.00246424
0.00200769
0.00165143
0.00135609
0.0010965
0.000868956
0.00064666
2.20639
1.76595
1.23108
0.788
0.475471
0.278401
0.162631
0.0968035
0.0594312
0.0378111
0.0249365
0.0170196
0.0119956
0.00871205
0.00650644
0.00498589
0.00391021
0.00312826
0.00254172
0.00208275
0.0017001
0.00135894
0.0010501
0.000732439
2.71729
2.26588
1.61247
1.05593
0.649097
0.38365
0.223913
0.132147
0.0801539
0.0503689
0.0328619
0.0222367
0.0155714
0.0112559
0.00837797
0.00640459
0.00501392
0.00400548
0.0032499
0.0026585
0.0021644
0.00171933
0.00130265
0.000844935
3.34079
2.87562
2.08365
1.39854
0.880934
0.529779
0.311247
0.183041
0.109908
0.0682024
0.0439561
0.0294352
0.0204435
0.0146877
0.0108855
0.00829826
0.00648607
0.00517823
0.00420165
0.00343898
0.00280287
0.00222717
0.00166929
0.00100172
4.14078
3.591
2.63759
1.81572
1.17753
0.726335
0.433531
0.256035
0.152913
0.0938602
0.0597362
0.0395334
0.0271886
0.0193878
0.0142943
0.0108637
0.00848282
0.00677909
0.0055172
0.00453999
0.00373291
0.00300502
0.0022749
0.00134116
5.26948
4.36932
3.25192
2.29454
1.53678
0.978922
0.599302
0.358962
0.214881
0.13104
0.0824772
0.0539236
0.0366786
0.0259255
0.0189973
0.0143905
0.0112348
0.00900949
0.00739287
0.00617758
0.00522137
0.00442811
0.00380547
0.00365187
6.41109
5.34344
3.91824
2.81467
1.94735
1.2864
0.814196
0.499688
0.302799
0.1848
0.115487
0.0746852
0.0502212
0.0351435
0.0255587
0.019276
0.01504
0.012115
0.0100623
0.00861833
0.00762325
0.00699764
0.00681308
0.00733126
2.28763
3.39578
4.12762
4.04915
3.36474
3.19592
0.960046
1.58081
2.01232
2.11162
1.98336
2.27981
0.253412
1.32395
1.65609
1.72962
1.71374
1.97931
0.2792
1.33562
1.57581
1.62966
1.64447
1.86405
1.39957
1.42518
1.5692
1.61278
1.64043
1.82594
1.68746
1.50619
1.59165
1.62964
1.66782
1.82809
1.91987
1.57009
1.62324
1.66045
1.70685
1.85126
2.10349
1.61616
1.65408
1.69438
1.74723
1.88088
2.24625
1.64563
1.68097
1.72668
1.7839
1.90877
2.3528
1.66172
1.70381
1.75582
1.81485
1.93053
2.42712
1.6693
1.72384
1.78209
1.83978
1.94408
2.47392
1.67248
1.74277
1.80692
1.86008
1.95022
2.48125
1.67164
1.76244
1.83243
1.87833
1.9513
2.44787
1.66654
1.78498
1.86122
1.89791
1.95061
2.37008
1.65797
1.81248
1.89638
1.92282
1.95121
2.24932
1.64678
1.8466
1.94199
1.95807
1.95743
2.08521
1.63302
1.88909
2.00287
2.01077
1.97483
1.87747
1.61636
1.94161
2.08631
2.09233
2.00952
1.6268
1.59629
2.00565
2.2018
2.21793
2.07869
1.337
1.57279
2.08077
2.36498
2.41442
2.21884
0.280648
1.54763
2.16728
2.60237
2.73522
2.50697
0.255912
1.5527
2.2855
2.9677
3.2962
3.15875
0.958984
1.70116
2.56896
3.61372
4.39956
4.89721
2.199
2.77279
3.89294
5.40978
6.23596
6.20379
6.41538
5.67423
4.40951
3.30028
2.3759
1.63614
1.0776
0.683852
0.423957
0.261446
0.163321
0.104834
0.0697483
0.0482781
0.0347827
0.0260551
0.0202642
0.016353
0.013709
0.0119799
0.0109646
0.0105722
0.0108343
0.0118046
6.15847
5.83107
4.76055
3.70128
2.78197
2.00456
1.38042
0.912252
0.584146
0.367812
0.231749
0.148541
0.0980549
0.0671484
0.0478499
0.0355042
0.02743
0.022087
0.0185929
0.0164422
0.0153396
0.0151275
0.0157198
0.0170499
4.71608
5.99749
5.14779
4.03557
3.13993
2.36347
1.70522
1.17865
0.7852
0.509661
0.327155
0.211127
0.139011
0.0943865
0.0665033
0.0487742
0.0373063
0.0298401
0.0250736
0.0222491
0.0209045
0.0207653
0.0215909
0.0232361
3.33206
5.93994
5.50348
4.37642
3.45125
2.69049
2.02885
1.46889
1.02262
0.689385
0.455137
0.298568
0.197584
0.133644
0.0932697
0.0675702
0.0510374
0.0403814
0.033667
0.0297426
0.0278845
0.0276469
0.0286084
0.0305312
2.74087
5.35829
5.60508
4.8383
3.7666
2.9844
2.33181
1.7637
1.28473
0.903621
0.618253
0.416139
0.279336
0.189588
0.131643
0.0943599
0.0703184
0.0548601
0.0451454
0.0394382
0.0366256
0.0360153
0.036984
0.0391241
2.46903
4.38555
5.54867
5.17766
4.14607
3.26675
2.60379
2.04178
1.55263
1.14119
0.813233
0.56608
0.389067
0.267376
0.186041
0.132525
0.097586
0.0749728
0.0606659
0.0521156
0.0476523
0.0462294
0.0470105
0.0492521
2.32763
3.65226
5.22364
5.25996
4.63067
3.59725
2.86325
2.29459
1.80837
1.38568
1.03004
0.745243
0.5286
0.371272
0.261213
0.186259
0.136133
0.103138
0.0819307
0.0689402
0.0617504
0.0588109
0.059096
0.0612241
2.25423
3.20106
4.61303
5.20956
4.92865
4.0343
3.1571
2.53234
2.04066
1.61917
1.25286
0.943782
0.694428
0.502455
0.360802
0.259883
0.189932
0.142567
0.111343
0.0916157
0.0800934
0.0745556
0.0736883
0.0755066
2.21573
2.92913
4.05297
4.9726
4.98729
4.50413
3.53171
2.79342
2.2586
1.83211
1.46568
1.14699
0.876874
0.656913
0.48522
0.356347
0.262843
0.197002
0.152031
0.122516
0.104369
0.0946063
0.0914449
0.0926748
2.19131
2.7562
3.63509
4.55893
4.92598
4.72672
4.00823
3.13864
2.49994
2.03362
1.66044
1.34046
1.06213
0.824967
0.629782
0.475157
0.357035
0.269794
0.207479
0.164667
0.136881
0.120572
0.113424
0.113467
2.16974
2.63678
3.33964
4.157
4.73349
4.74963
4.39938
3.56873
2.81074
2.25718
1.84776
1.51908
1.23827
0.994128
0.784988
0.61097
0.471014
0.362212
0.280442
0.221249
0.180489
0.154675
0.14129
0.138705
2.1461
2.54408
3.12557
3.82504
4.44265
4.68638
4.54987
4.01023
3.21379
2.55146
2.0625
1.69696
1.40408
1.15521
0.93989
0.754897
0.599194
0.472015
0.371393
0.294454
0.238073
0.199531
0.176929
0.169676
2.11866
2.46297
2.95854
3.55984
4.14939
4.53172
4.55294
4.29967
3.64978
2.93347
2.34976
1.91109
1.57886
1.31357
1.08968
0.897579
0.733179
0.593518
0.477624
0.384221
0.311511
0.257806
0.222654
0.207907
2.08796
2.3854
2.81504
3.33925
3.88121
4.31318
4.49103
4.40046
4.01279
3.36247
2.73057
2.20825
1.80539
1.49564
1.24865
1.04312
0.86851
0.719901
0.593411
0.487181
0.400103
0.331139
0.280863
0.255142
2.05555
2.30728
2.68038
3.14116
3.63375
4.0722
4.35053
4.38694
4.2131
3.75109
3.16352
2.60418
2.1301
1.75158
1.45311
1.21413
1.01892
0.855957
0.717868
0.600549
0.501574
0.419344
0.353567
0.313307
2.02354
2.22699
2.54631
2.94976
3.39341
3.81657
4.14229
4.2966
4.25381
4.00842
3.55701
3.04673
2.55294
2.11789
1.75481
1.45971
1.22143
1.02739
0.86705
0.732866
0.61978
0.524411
0.443985
0.385939
1.99467
2.14483
2.4095
2.75675
3.14918
3.54258
3.88113
4.10638
4.17428
4.084
3.81807
3.42705
2.99171
2.5592
2.16159
1.81502
1.52285
1.2805
1.08037
0.914624
0.776658
0.661156
0.56348
0.483262
1.9728
2.0629
2.2707
2.56101
2.8978
3.24822
3.57209
3.82533
3.96999
3.98463
3.87594
3.63457
3.31321
2.95196
2.58313
2.23133
1.91154
1.63019
1.38789
1.18179
1.00782
0.860934
0.738217
0.628947
1.96258
1.9843
2.13402
2.36767
2.64539
2.94128
3.22696
3.4714
3.64407
3.72624
3.71174
3.60323
3.40536
3.1509
2.86344
2.56408
2.26955
1.99176
1.7377
1.51013
1.30971
1.13412
0.985232
0.847042
1.96381
1.91389
2.00532
2.18657
2.40643
2.64199
2.87269
3.07759
3.23755
3.33404
3.36703
3.33139
3.23011
3.07389
2.87951
2.66137
2.43268
2.20389
1.98321
1.77578
1.58436
1.4098
1.25724
1.11425
1.98767
1.85455
1.89066
2.02924
2.19984
2.37917
2.55064
2.70037
2.81639
2.8886
2.91805
2.90352
2.84509
2.74941
2.62475
2.47915
2.32018
2.15448
1.9874
1.82379
1.66783
1.52226
1.39293
1.27967
2.05339
1.80542
1.79571
1.90581
2.04314
2.18312
2.3094
2.40753
2.46955
2.49739
2.49479
2.45923
2.39707
2.31436
2.21667
2.10891
1.99521
1.87908
1.76346
1.65083
1.54321
1.4426
1.35296
1.27565
2.18239
1.76143
1.72354
1.82348
1.95424
2.08443
2.1965
2.27034
2.30421
2.30583
2.26797
2.19954
2.10969
2.0064
1.8963
1.78446
1.67456
1.56917
1.46999
1.37821
1.29517
1.22266
1.16292
1.11494
2.34379
1.71576
1.67033
1.78163
1.92174
2.05969
2.17804
2.25234
2.2839
2.27919
2.22994
2.14829
2.04522
1.93002
1.81008
1.6908
1.57585
1.46758
1.36737
1.2758
1.19344
1.12148
1.06172
1.01402
1.92218
2.9969
6.02449
6.78275
6.61221
26.5043
0.836148
2.32864
3.61908
3.93063
3.97862
4.54477
0.234619
2.07097
2.72136
2.81856
2.70186
2.42925
0.261825
1.89602
2.27969
2.26946
2.10128
1.83542
1.19118
1.767
2.00056
1.93615
1.77492
1.58542
1.30654
1.65884
1.79828
1.71266
1.57607
1.45785
1.44231
1.55797
1.64123
1.55181
1.44297
1.37742
1.54631
1.46742
1.51425
1.42812
1.34644
1.31287
1.6194
1.38858
1.40846
1.32816
1.26788
1.25396
1.66251
1.31936
1.31813
1.24393
1.1975
1.19674
1.67574
1.25845
1.23953
1.17006
1.13115
1.14027
1.66612
1.20517
1.17031
1.10289
1.06797
1.08526
1.63354
1.16044
1.10883
1.04053
1.00789
1.03408
1.58996
1.12469
1.05386
0.982105
0.951453
0.990159
1.53358
1.09482
1.00417
0.927136
0.899646
0.957626
1.46298
1.06587
0.957966
0.875254
0.853495
0.940968
1.37496
1.02815
0.912375
0.826115
0.81358
0.944421
1.24496
0.959972
0.863049
0.779801
0.779391
0.972467
1.18552
0.829959
0.806008
0.738694
0.750944
1.03321
0.270016
0.713575
0.752406
0.704083
0.730319
1.12822
0.254022
0.651644
0.720153
0.684268
0.722844
1.22632
0.232725
0.663782
0.735594
0.702135
0.740629
1.32943
0.878689
0.883726
0.889942
0.838016
0.833625
1.54158
2.21417
2.10724
1.88051
1.66143
1.38473
1.54433
2.27817
1.6478
1.6334
1.76985
1.93427
2.10422
2.25657
2.36161
2.41056
2.41701
2.36745
2.27753
2.16205
2.03302
1.89925
1.76722
1.64122
1.52379
1.41612
1.31846
1.23089
1.15382
1.08778
1.03313
1.86822
1.5706
1.61631
1.78454
1.98975
2.21134
2.41838
2.57543
2.66018
2.68919
2.64954
2.5592
2.4365
2.29775
2.15441
2.01376
1.88012
1.75577
1.64165
1.53805
1.44471
1.36104
1.28518
1.21763
1.64325
1.51525
1.61589
1.81762
2.07057
2.35345
2.62137
2.8196
2.91431
2.90781
2.83015
2.71189
2.57333
2.42548
2.27715
2.1345
2.00123
1.87931
1.76926
1.67086
1.58333
1.50568
1.43482
1.36492
1.52201
1.48421
1.62623
1.859
2.1606
2.50493
2.818
2.99612
3.0248
2.96506
2.85067
2.70508
2.54466
2.38293
2.22858
2.08606
1.95717
1.84192
1.73965
1.64901
1.5687
1.49756
1.43433
1.36545
1.44961
1.47163
1.64191
1.90404
2.25755
2.66578
2.97725
3.10023
3.02689
2.82676
2.58404
2.34863
2.13304
1.94315
1.78063
1.64376
1.52938
1.4339
1.35388
1.28572
1.22738
1.17523
1.13559
1.08232
1.40147
1.46901
1.6608
1.95784
2.38302
2.8681
3.15517
3.13791
2.85424
2.41655
2.0298
1.71423
1.4507
1.23769
1.06802
0.933985
0.828488
0.745211
0.680096
0.627957
0.58768
0.549791
0.527735
0.490207
1.36562
1.4679
1.6829
2.03386
2.57894
3.15034
3.36452
3.14637
2.55505
1.98401
1.55992
1.24116
1.00312
0.816372
0.666899
0.547748
0.453749
0.379953
0.322329
0.277484
0.24283
0.213974
0.193761
0.170604
1.33356
1.46372
1.71091
2.15409
2.89208
3.52829
3.52345
3.03195
2.23131
1.6732
1.29463
1.02129
0.80874
0.637681
0.499902
0.390366
0.305181
0.240611
0.192127
0.155483
0.127923
0.106671
0.0911736
0.0782787
1.29934
1.4563
1.75651
2.36812
3.37835
3.89627
3.61333
2.73059
1.94392
1.44857
1.11291
0.865959
0.671194
0.516559
0.395608
0.302169
0.230515
0.175877
0.134605
0.103881
0.0814132
0.0654254
0.0546345
0.048073
1.26154
1.45249
1.85321
2.76743
4.02056
4.15976
3.55435
2.39295
1.69265
1.2509
0.937933
0.703272
0.522913
0.38686
0.286536
0.213624
0.16088
0.122521
0.094298
0.0733475
0.0577736
0.0464976
0.0391976
0.0361282
1.22336
1.469
2.05679
3.46643
4.59565
4.27213
3.09045
2.05788
1.45672
1.05725
0.771137
0.557951
0.400058
0.286211
0.205576
0.149019
0.109561
0.0821158
0.0630506
0.0498118
0.0406944
0.0346891
0.0313159
0.0305204
1.19213
1.53617
2.45951
4.4576
4.84318
4.09656
2.60552
1.75385
1.23422
0.876779
0.619864
0.435106
0.305711
0.216356
0.154848
0.112343
0.0827899
0.0621884
0.0479185
0.0382514
0.0320351
0.0284745
0.0270915
0.0273796
1.17894
1.70116
3.24169
5.21161
4.89617
3.43818
2.18903
1.48712
1.03054
0.711261
0.486628
0.333347
0.230437
0.161654
0.115502
0.0842664
0.0629163
0.0482312
0.0381813
0.0314959
0.0273692
0.0252617
0.0248424
0.0254796
1.19762
2.02708
4.4947
5.45249
4.58085
2.82485
1.85276
1.25141
0.842533
0.562404
0.376154
0.254116
0.174331
0.121872
0.0870615
0.0637462
0.048031
0.0374492
0.0304354
0.0259951
0.0234886
0.0225007
0.022696
0.0236261
1.26994
2.61178
5.62404
5.45019
3.86949
2.4135
1.57671
1.03513
0.67471
0.440221
0.290198
0.194654
0.133406
0.0936256
0.0673969
0.0498786
0.0381037
0.0302365
0.025124
0.0220293
0.020461
0.0200934
0.0205587
0.0216346
1.4263
3.67958
6.01528
5.15965
3.2146
2.04949
1.31977
0.840777
0.533935
0.342167
0.223433
0.149467
0.102674
0.0725024
0.0526885
0.0394912
0.030652
0.0247895
0.0210448
0.0188713
0.0179001
0.0178793
0.018487
0.0195622
1.68536
5.12783
6.04001
4.56896
2.81776
1.76548
1.09379
0.673498
0.418117
0.264913
0.172425
0.115562
0.0797878
0.0567582
0.0416378
0.0315738
0.0248528
0.0204289
0.0176531
0.0161126
0.0155282
0.0156755
0.016372
0.0173876
2.07029
6.28838
5.91502
4.00814
2.44269
1.47926
0.885553
0.532088
0.326007
0.205574
0.133878
0.0900721
0.0625662
0.044855
0.0332123
0.0254543
0.0202741
0.0168768
0.0147706
0.0136439
0.0132848
0.013507
0.0142048
0.0151407
2.67377
6.7629
5.74289
3.53016
2.10437
1.22485
0.709278
0.41792
0.253984
0.159989
0.10448
0.0706361
0.0493735
0.0356603
0.0266276
0.0205953
0.0165589
0.0139087
0.0122702
0.0114084
0.0111646
0.0113968
0.0120389
0.0128858
3.71928
6.87089
5.38252
3.17014
1.78725
0.993871
0.560601
0.326751
0.198144
0.125053
0.0819747
0.0556909
0.0391497
0.0284599
0.0214017
0.0166733
0.0134953
0.0113948
0.010084
0.00938491
0.00918121
0.00937497
0.00992417
0.0106777
5.35241
6.94289
5.06486
2.75296
1.46465
0.788234
0.438708
0.254991
0.154914
0.0981199
0.0645916
0.0440825
0.0311427
0.0227594
0.0172086
0.0134753
0.0109489
0.00925837
0.00817845
0.0075726
0.00735605
0.00747072
0.00789512
0.00854853
7.78171
7.43183
4.56287
2.29111
1.16879
0.617607
0.342275
0.199279
0.121516
0.0772846
0.0510834
0.0350023
0.0248255
0.0182139
0.0138223
0.0108547
0.00882907
0.00745001
0.00653686
0.00598024
0.00571473
0.00571075
0.0059705
0.00650332
9.72373
7.69626
3.76818
1.81918
0.908886
0.478399
0.266099
0.155822
0.0955537
0.0610694
0.0405314
0.0278691
0.0198256
0.0145821
0.0110863
0.00871105
0.00707363
0.00593611
0.00514947
0.00462006
0.00428872
0.004128
0.00417092
0.00451754
12.3138
7.25158
3.06537
1.39809
0.693367
0.36794
0.206691
0.122069
0.0753671
0.048424
0.0322706
0.0222584
0.0158704
0.0116893
0.0088893
0.00697507
0.00564134
0.00469544
0.00401264
0.00350901
0.00312359
0.00281301
0.00257513
0.00255907
)
;

boundaryField
{
    rotor
    {
        type            epsilonWallFunction;
        value           nonuniform List<scalar> 
144
(
2.23056
4.32132
6.49817
7.12724
7.33887
31.8879
2.23056
0.934564
0.249915
0.269834
0.280327
1.27381
1.37339
1.45297
1.51031
1.54687
1.5661
1.5733
1.57165
1.54725
1.49469
1.41504
1.31577
1.21374
0.280314
0.268504
0.250061
0.226198
0.840053
1.89471
1.89471
1.52724
1.90144
2.85691
3.22798
2.9902
2.18122
2.81141
4.2373
4.02179
3.41711
2.86443
2.18122
0.907874
0.247259
0.280849
1.56994
1.91833
2.21638
2.46054
2.65131
2.79099
2.88237
2.92788
2.92881
2.91765
2.88797
2.83155
2.74016
2.60454
2.41351
2.15334
1.81113
1.38464
1.04054
2.78516
2.78516
3.76331
5.21123
5.76106
5.79101
6.19793
2.28763
3.39578
4.12762
4.04915
3.36474
3.19592
2.28763
0.960046
0.253412
0.2792
1.39957
1.68746
1.91987
2.10349
2.24625
2.3528
2.42712
2.47392
2.48125
2.44787
2.37008
2.24932
2.08521
1.87747
1.6268
1.337
0.280648
0.255912
0.958984
2.199
2.199
2.77279
3.89294
5.40978
6.23596
6.20379
1.92218
2.9969
6.02449
6.78275
6.61221
26.5043
1.92218
0.836148
0.234619
0.261825
1.19118
1.30654
1.44231
1.54631
1.6194
1.66251
1.67574
1.66612
1.63354
1.58996
1.53358
1.46298
1.37496
1.24496
1.18552
0.270016
0.254022
0.232725
0.878689
2.21417
2.21417
2.10724
1.88051
1.66143
1.38473
1.54433
)
;
    }
    freestream
    {
        type            inletOutlet;
        inletValue      uniform 0.000375;
        value           nonuniform List<scalar> 
96
(
0.000375
0.000375
0.000375
0.000375
0.000375
0.000375
0.000375
0.000375
0.000375
0.000375
0.000375
0.000375
0.000375
0.000375
0.000375
0.000375
0.000375
0.000375
0.000375
0.000375
0.000375
0.000375
0.000375
0.000375
0.000375
0.000375
0.000375
0.000375
0.000375
0.000375
0.000375
0.000375
0.000375
0.000375
0.000375
0.000375
0.000375
0.000375
0.000375
0.000375
0.000375
0.000375
0.000375
0.000375
0.000375
0.000375
0.00365187
0.00733126
0.0118046
0.0170499
0.0232361
0.0305312
0.0391241
0.0492521
0.0612241
0.0755066
0.0926748
0.113467
0.138705
0.169676
0.207907
0.255142
0.313307
0.385939
0.483262
0.628947
0.847042
1.11425
1.27967
1.27565
1.11494
1.01402
1.03313
1.21763
1.36492
1.36545
1.08232
0.490207
0.170604
0.0782787
0.048073
0.0361282
0.0305204
0.0273796
0.0254796
0.0236261
0.0216346
0.0195622
0.0173876
0.0151407
0.0128858
0.0106777
0.00854853
0.00650332
0.00451754
0.00255907
)
;
    }
    frontAndBack
    {
        type            empty;
    }
}


// ************************************************************************* //
