/*--------------------------------*- C++ -*----------------------------------*\
  =========                 |
  \\      /  F ield         | OpenFOAM: The Open Source CFD Toolbox
   \\    /   O peration     | Website:  https://openfoam.org
    \\  /    A nd           | Version:  11
     \\/     M anipulation  |
\*---------------------------------------------------------------------------*/
FoamFile
{
    format      ascii;
    class       volScalarField;
    location    "1.76";
    object      nut;
}
// * * * * * * * * * * * * * * * * * * * * * * * * * * * * * * * * * * * * * //

dimensions      [0 2 -1 0 0 0 0];

internalField   nonuniform List<scalar> 
2880
(
9.20433e-07
6.67146e-06
2.71412e-05
6.61017e-05
0.000132366
5.04085e-05
3.11099e-05
7.52571e-05
0.000151896
0.000243697
0.000354245
0.000422641
0.00017702
0.000147959
0.000260586
0.000377752
0.000513615
0.000715973
0.000191101
0.000199282
0.000333074
0.000462055
0.000617352
0.000858852
0.0002002
0.000232419
0.000377045
0.000517129
0.000678234
0.000921865
4.84152e-05
0.000253315
0.000402501
0.00054758
0.000714081
0.000984266
4.95568e-05
0.000267715
0.000417031
0.000560118
0.000744557
0.00103967
5.04906e-05
0.000277703
0.000423618
0.000562196
0.000773457
0.0010911
5.11497e-05
0.000284282
0.000424151
0.000561636
0.000798626
0.00113824
5.15635e-05
0.000288018
0.000420142
0.000560205
0.000818713
0.00117988
5.17813e-05
0.000289148
0.000412628
0.000556192
0.000833835
0.00121441
5.18663e-05
0.000287341
0.000402369
0.000547687
0.000843032
0.00124101
5.18548e-05
0.000282356
0.000389519
0.000533771
0.000844942
0.00125827
5.15906e-05
0.00027425
0.00037388
0.000514491
0.000837901
0.00126454
5.10043e-05
0.000263017
0.000355408
0.000488553
0.000820004
0.00125804
5.00869e-05
0.000248611
0.000333945
0.000458061
0.000787777
0.00123669
4.88949e-05
0.000230972
0.000309137
0.000421639
0.000742067
0.0011981
4.76204e-05
0.000210077
0.000280722
0.000379851
0.000678288
0.00113926
0.00019889
0.000185992
0.000247734
0.000333046
0.000595068
0.00105594
0.000190514
0.000158032
0.000208963
0.000281429
0.000493145
0.000941685
0.000177386
0.000127195
0.000162674
0.000224581
0.000377509
0.000785947
0.000160416
8.97257e-05
0.00011056
0.000159617
0.000257104
0.00057478
2.79877e-05
4.23546e-05
5.37729e-05
8.60899e-05
0.000141987
0.000303366
7.8324e-07
2.35444e-06
7.9122e-06
2.6426e-05
5.82823e-05
9.57791e-05
0.000273206
0.000781196
0.00132655
0.00170609
0.00207219
0.00244
0.00280734
0.00316885
0.0035214
0.00386383
0.00419501
0.00451222
0.00481017
0.00508081
0.00531385
0.00549769
0.00562062
0.00567166
0.00564059
0.00551659
0.00528493
0.00492078
0.00437388
0.00356763
0.000737408
0.00125981
0.001598
0.00193777
0.00229876
0.00266937
0.00303731
0.00339592
0.00374269
0.00407655
0.00439575
0.00469632
0.00497159
0.00521235
0.00540769
0.00554627
0.00561764
0.00561327
0.00552666
0.00535239
0.00508385
0.00471001
0.00421106
0.0035442
0.000989153
0.00144387
0.00177879
0.00213677
0.0025116
0.00288754
0.00325443
0.00360805
0.00394707
0.00427047
0.00457568
0.00485763
0.00510855
0.00531861
0.00547699
0.00557351
0.00559997
0.00555114
0.00542475
0.00522047
0.00493794
0.00457422
0.00412121
0.00355417
0.00114597
0.00159874
0.00195521
0.00233115
0.00271493
0.00309224
0.0034556
0.00380257
0.00413241
0.00444378
0.00473326
0.00499477
0.00521976
0.00539814
0.00551978
0.00557622
0.00556216
0.0054762
0.00532053
0.00509939
0.00481649
0.00447273
0.00406579
0.00357929
0.00127978
0.00173558
0.0021185
0.00251181
0.00290257
0.00327965
0.00363836
0.0039777
0.00429723
0.00459514
0.00486719
0.00510643
0.00530378
0.00544923
0.00553371
0.00555091
0.00549872
0.00537959
0.00519973
0.00496695
0.00468773
0.00436551
0.00400203
0.00358703
0.00138289
0.00185369
0.00226633
0.00267604
0.00307238
0.00344825
0.00380159
0.0041325
0.00444066
0.00472374
0.00497672
0.00519192
0.00535994
0.00547118
0.00551798
0.00549651
0.00540805
0.00525891
0.00505897
0.00481897
0.00454737
0.0042492
0.00392875
0.00357976
0.00147411
0.00196026
0.00239995
0.00282339
0.00322373
0.00359754
0.00394487
0.00426663
0.00456242
0.00482939
0.00506181
0.00525142
0.00538872
0.00546483
0.00547382
0.0054147
0.00529236
0.00511692
0.00490156
0.00465933
0.00439979
0.00412852
0.00385075
0.00356227
0.0015558
0.00205731
0.00251944
0.0029537
0.00335661
0.00372762
0.00406836
0.00438026
0.00466279
0.00491256
0.0051232
0.00528606
0.00539173
0.00543236
0.00540413
0.0053092
0.00515626
0.00495914
0.00473385
0.00449488
0.00425187
0.00400978
0.00377336
0.00353912
0.00162798
0.00214529
0.00262481
0.00306726
0.00347151
0.00383903
0.00417262
0.00447404
0.00474257
0.00497431
0.00516234
0.00529775
0.00537149
0.005377
0.00531293
0.00518493
0.00500562
0.00479227
0.00456305
0.00433283
0.00411016
0.00389845
0.0037009
0.00351387
0.00169055
0.00222377
0.00271608
0.00316461
0.00356917
0.00393261
0.00425855
0.004549
0.00480301
0.00501621
0.00518124
0.00528906
0.00533117
0.00530264
0.00520492
0.00504747
0.00484683
0.00462331
0.00439623
0.00417968
0.00398007
0.00379853
0.00363619
0.00348902
0.00174415
0.002291
0.00279329
0.00324642
0.00365051
0.00400937
0.00432727
0.00460643
0.00484567
0.00504021
0.00518232
0.00526293
0.00527435
0.00521354
0.00508513
0.00490258
0.00468625
0.00445873
0.0042394
0.00404031
0.00386501
0.00371206
0.0035805
0.00346605
0.00178781
0.00234608
0.00285663
0.00331345
0.00371654
0.00407044
0.00438006
0.00464782
0.00487235
0.00504849
0.00516822
0.00522258
0.00520482
0.00511412
0.0049586
0.00475584
0.00452964
0.00430396
0.00409695
0.00391766
0.00376643
0.00363942
0.00353395
0.00344576
0.00182035
0.00238845
0.00290634
0.00336645
0.00376827
0.00411702
0.0044183
0.00467477
0.00488496
0.00504337
0.00514171
0.00517125
0.00512638
0.00500872
0.00483013
0.0046123
0.00438185
0.00416298
0.00397145
0.00381276
0.00368413
0.00357983
0.00349595
0.00342847
0.00184063
0.0024176
0.0029426
0.00340616
0.00380673
0.00415031
0.00444336
0.00468892
0.00488544
0.00502714
0.00510555
0.00511218
0.0050427
0.00490142
0.00470409
0.00447624
0.00424652
0.00403819
0.00386383
0.00372518
0.00361688
0.00353188
0.00346556
0.00341425
0.00184747
0.00243292
0.00296545
0.00343327
0.00383291
0.00417149
0.00445661
0.00469184
0.00487567
0.00500207
0.00506236
0.00504839
0.00495721
0.00479596
0.00458424
0.004351
0.00412599
0.00393058
0.00377364
0.00365351
0.00356287
0.00349394
0.00344174
0.00340294
0.0018396
0.00243355
0.00297467
0.00344837
0.00384777
0.00418168
0.00445932
0.00468505
0.00485743
0.00497025
0.00501461
0.00498272
0.00487303
0.00469554
0.00447356
0.00423887
0.0040214
0.00383992
0.00369959
0.00359587
0.00352014
0.00346437
0.00342345
0.00339428
0.00181543
0.00241822
0.00296952
0.003452
0.0038522
0.0041819
0.00445268
0.00466992
0.00483236
0.00493359
0.00496453
0.00491766
0.00479286
0.00460285
0.0043743
0.00414118
0.00393286
0.00376519
0.00363992
0.00355025
0.00348681
0.00344167
0.00340972
0.00338793
0.00177307
0.00238496
0.00294831
0.00344465
0.00384706
0.00417312
0.00443776
0.00464768
0.00480192
0.00489382
0.00491408
0.00485543
0.00471899
0.00451998
0.00428795
0.00405843
0.00385976
0.00370489
0.0035927
0.00351472
0.00346122
0.00342448
0.00339961
0.00338343
0.00170992
0.0023342
0.00291291
0.00342701
0.00383321
0.00415618
0.00441548
0.00461943
0.00476736
0.0048524
0.00486496
0.00479788
0.00465329
0.0044485
0.00421541
0.00399055
0.00380108
0.0036574
0.00355609
0.00348758
0.00344198
0.00341179
0.00339228
0.00338027
0.00162201
0.0022652
0.00286682
0.00339914
0.00381158
0.00413189
0.00438665
0.00458609
0.00472978
0.00481059
0.00481857
0.00474651
0.00459722
0.00438956
0.00415716
0.00393721
0.00375577
0.00362123
0.00352856
0.00346744
0.00342796
0.00340281
0.00338704
0.0033782
0.00150381
0.00217771
0.00281285
0.00336501
0.00378357
0.004101
0.00435198
0.00454844
0.00469005
0.00476936
0.00477597
0.00470243
0.00455182
0.0043439
0.00411341
0.00389796
0.00372289
0.00359524
0.00350893
0.0034532
0.00341818
0.00339639
0.00338363
0.00337698
0.00134771
0.00207442
0.00275635
0.00332969
0.00375062
0.00406423
0.00431211
0.00450717
0.0046489
0.00472943
0.00473787
0.00466633
0.00451767
0.00431187
0.00408414
0.00387236
0.00370165
0.00357849
0.00349627
0.00344404
0.00341191
0.00339223
0.00338166
0.00337631
0.0011452
0.00196702
0.00270754
0.00329794
0.00371385
0.00402231
0.00426778
0.00446302
0.00460701
0.00469135
0.00470465
0.00463841
0.00449487
0.00429346
0.00406917
0.00386001
0.00369149
0.00357033
0.00348998
0.00343937
0.00340846
0.00339021
0.00338067
0.00337604
0.000922356
0.00188987
0.00268231
0.00327297
0.00367383
0.00397647
0.00422146
0.00441916
0.00456775
0.00465836
0.00467912
0.00462084
0.00448475
0.00428913
0.00406836
0.00386066
0.00369215
0.00357046
0.00348961
0.00343891
0.00340813
0.00339014
0.00338072
0.00337608
8.95492e-07
4.29866e-06
1.75435e-05
3.70744e-05
6.13791e-05
9.13485e-05
3.01158e-05
3.01164e-05
6.54904e-05
0.000114574
0.000187153
0.000341627
0.00017481
8.26317e-05
0.000141665
0.000242078
0.000400596
0.000710645
0.000200326
0.000136653
0.000223904
0.000385684
0.000630208
0.00101854
5.17453e-05
0.000186508
0.000307757
0.000528826
0.000831937
0.00123552
5.5301e-05
0.000233361
0.000389962
0.000657434
0.000992717
0.00138152
5.8038e-05
0.000277081
0.000467327
0.000765802
0.00111479
0.00147975
6.0106e-05
0.000315429
0.000537281
0.000854284
0.0012052
0.00154211
6.16303e-05
0.000347267
0.000597726
0.000923937
0.00126706
0.00158022
6.27022e-05
0.000372391
0.000648586
0.000976111
0.00130844
0.0016009
6.33859e-05
0.000390541
0.000686942
0.00101388
0.00133373
0.00160885
6.37234e-05
0.000401391
0.000712632
0.00103845
0.00134623
0.00160719
6.37351e-05
0.000404129
0.000725834
0.0010498
0.00134805
0.00159776
6.36562e-05
0.000396569
0.000726702
0.0010481
0.00133964
0.00158126
6.34428e-05
0.000380265
0.000715117
0.00103368
0.00132074
0.00155726
6.30313e-05
0.000356363
0.000691085
0.00100615
0.0012907
0.00152609
6.23506e-05
0.000326726
0.000654679
0.000964711
0.00124797
0.001487
6.13093e-05
0.000292988
0.000608616
0.000908102
0.00118989
0.00143643
5.97763e-05
0.000256651
0.000549801
0.000835667
0.0011104
0.00136179
5.75491e-05
0.000218267
0.000480889
0.000745581
0.00100311
0.00125345
5.43245e-05
0.000177834
0.000398342
0.000627046
0.00086702
0.00109744
4.96738e-05
0.000133587
0.000295746
0.000472761
0.000670458
0.000871905
3.46098e-05
7.36901e-05
0.000165019
0.000272146
0.000401318
0.000550032
1.14891e-06
5.82694e-06
2.18289e-05
5.35269e-05
0.000104544
0.000199236
0.000906718
0.00192241
0.00269704
0.00325225
0.00362984
0.00392549
0.00416959
0.00437003
0.0045241
0.00462282
0.00465408
0.00460774
0.00448326
0.00429686
0.00408121
0.00387431
0.0037038
0.00357917
0.00349569
0.00344297
0.003411
0.00339188
0.00338163
0.00337636
0.00116035
0.00204541
0.00273275
0.00322423
0.00358115
0.0038708
0.00411509
0.00431941
0.00448048
0.00458917
0.00463312
0.00460133
0.00449141
0.00431674
0.00410752
0.00390116
0.00372697
0.00359704
0.00350853
0.00345181
0.00341681
0.00339579
0.00338355
0.00337704
0.00142435
0.00216465
0.00275799
0.00318922
0.00352817
0.00381305
0.00405835
0.00426733
0.00443629
0.00455621
0.00461469
0.00459996
0.00450752
0.00434748
0.00414671
0.00394137
0.00376238
0.00362499
0.00352905
0.00346617
0.00342645
0.00340185
0.00338697
0.00337823
0.0016295
0.00225595
0.00275606
0.00314648
0.00347121
0.00375246
0.00399934
0.00421346
0.00439091
0.00452296
0.00459737
0.00460177
0.00452962
0.00438735
0.00419782
0.00399496
0.00381086
0.00366428
0.00355855
0.00348718
0.0034407
0.00341085
0.00339196
0.00338019
0.00177493
0.00230292
0.0027358
0.00309684
0.00341033
0.00368884
0.00393768
0.00415721
0.00434348
0.0044882
0.00457953
0.0046047
0.00455535
0.00443415
0.00425929
0.00406146
0.00387304
0.00371627
0.00359859
0.00351624
0.0034607
0.00342366
0.00339916
0.00338319
0.00186438
0.00231572
0.00270219
0.00304091
0.00334522
0.0036216
0.00387263
0.00409773
0.00429299
0.00445065
0.00455944
0.00460657
0.00458211
0.00448518
0.00432892
0.00413978
0.0039492
0.00378227
0.00365097
0.00355516
0.00348798
0.0034414
0.00340922
0.00338746
0.0019106
0.00230658
0.00265838
0.00297891
0.00327526
0.00354989
0.00380326
0.00403402
0.00423829
0.00440894
0.00453542
0.00460516
0.00460715
0.00453735
0.00440385
0.00422801
0.00403889
0.0038633
0.00371761
0.00360607
0.00352438
0.0034654
0.00342314
0.00339349
0.00192844
0.00228273
0.00260634
0.00291082
0.00319973
0.00347272
0.0037285
0.00396494
0.00417821
0.00436173
0.00450579
0.00459833
0.00462772
0.00458735
0.00448058
0.00432322
0.00414057
0.00395952
0.00380007
0.00367116
0.00357206
0.00349742
0.00344208
0.00340186
0.00192848
0.00224878
0.00254752
0.00283663
0.00311796
0.00338912
0.00364722
0.00388931
0.00411148
0.00430767
0.00446897
0.00458407
0.00464116
0.00463173
0.00455504
0.00442138
0.00425119
0.00406964
0.00389884
0.00375219
0.00363323
0.00353946
0.00346738
0.00341305
0.00191706
0.00220791
0.00248315
0.00275652
0.00302948
0.0032982
0.00355832
0.00380593
0.00403685
0.00424539
0.00442345
0.0045605
0.00464497
0.00466711
0.00462292
0.00451757
0.00436614
0.00419042
0.00401275
0.00384985
0.00370967
0.00359346
0.00350046
0.0034275
0.00189816
0.00216255
0.0024146
0.00267101
0.00293412
0.00319932
0.00346082
0.0037136
0.00395302
0.00417355
0.00436774
0.00452589
0.00463689
0.00469037
0.00467993
0.0046064
0.00447954
0.00431665
0.00413835
0.00396291
0.00380196
0.00366089
0.00354259
0.00344559
0.00187436
0.00211473
0.00234339
0.00258103
0.00283217
0.00309213
0.00335391
0.00361123
0.00385873
0.00409078
0.00430039
0.00447861
0.00461493
0.00469879
0.00472218
0.00468255
0.00458483
0.00444145
0.00426973
0.00408749
0.00390854
0.00374187
0.00359447
0.00346739
0.00184725
0.00206621
0.00227128
0.00248803
0.00272442
0.00297673
0.00323709
0.0034979
0.00375277
0.00399573
0.00421998
0.00441715
0.00457733
0.00469007
0.0047464
0.00474124
0.00467556
0.00455705
0.00439893
0.00421683
0.00402485
0.0038342
0.00365542
0.0034924
0.00181757
0.0020185
0.00220018
0.00239392
0.00261232
0.00285382
0.00311033
0.00337297
0.00363413
0.00388713
0.00412512
0.00434006
0.00452255
0.00466237
0.00474999
0.0047786
0.00474603
0.00465586
0.00451704
0.00434191
0.00414317
0.00393247
0.00372238
0.00351893
0.00178505
0.00197287
0.00213194
0.00230099
0.00249798
0.00272483
0.00297421
0.00323628
0.00350207
0.00376392
0.00401454
0.004246
0.00444921
0.00461418
0.00473106
0.00479182
0.00479191
0.00473148
0.00461555
0.00445283
0.00425347
0.00402805
0.0037892
0.00354336
0.00174639
0.0019304
0.00206794
0.00221161
0.0023841
0.00259201
0.00283014
0.00308835
0.00335638
0.00362533
0.00388718
0.00413378
0.00435612
0.00454431
0.0046883
0.00477909
0.00481031
0.00477933
0.00468772
0.00454064
0.00434528
0.0041102
0.00384656
0.00355948
0.00169917
0.00188887
0.00200819
0.00212768
0.00227369
0.00245847
0.00268052
0.0029306
0.00319757
0.00347118
0.00374238
0.00400248
0.00424229
0.00445187
0.00462085
0.00473947
0.00479981
0.0047969
0.00472931
0.00459892
0.00440989
0.00416839
0.0038834
0.00355831
0.0016452
0.0018394
0.0019505
0.00204998
0.00216955
0.00232787
0.00252878
0.00276558
0.00302714
0.00330206
0.00358007
0.00385163
0.00410711
0.00433626
0.00452833
0.00467276
0.00476021
0.00478363
0.00473887
0.00462469
0.0044422
0.00419492
0.00388944
0.00352915
0.00158983
0.00177092
0.0018921
0.00197782
0.00207361
0.00220396
0.0023792
0.00259705
0.00284784
0.00311967
0.00340108
0.00368148
0.0039505
0.00419739
0.00441085
0.00457945
0.00469246
0.00474081
0.00471771
0.00461881
0.00444192
0.00418731
0.00385842
0.00346177
0.00151885
0.00168073
0.00182883
0.0019086
0.00198615
0.00208977
0.00223642
0.00242985
0.00266379
0.00292704
0.00320741
0.00349322
0.00377319
0.00403588
0.00426926
0.00446097
0.00459885
0.00467175
0.0046702
0.00458655
0.00441477
0.0041505
0.00379163
0.00334954
0.00140951
0.00156309
0.00175162
0.00183689
0.00190504
0.00198665
0.00210453
0.00226941
0.00248034
0.00272866
0.00300244
0.00328927
0.00357696
0.00385325
0.00410536
0.00431994
0.00448343
0.00458265
0.00460531
0.00454013
0.00437634
0.00410266
0.00370587
0.00319539
0.00122743
0.00140606
0.00164763
0.00175477
0.00182543
0.00189337
0.00198599
0.00212081
0.00230365
0.00253041
0.0027911
0.00307347
0.00336474
0.00365199
0.0039218
0.0041601
0.00435225
0.00448347
0.00453915
0.00450466
0.0043644
0.0040992
0.00367805
0.00304666
0.000927304
0.00120207
0.0014872
0.00165578
0.00174048
0.00180577
0.00188052
0.00198752
0.00213962
0.00233901
0.00257968
0.00285102
0.00314056
0.0034352
0.00372134
0.00398481
0.00421103
0.00438531
0.00449324
0.00452101
0.00445792
0.0043084
0.00412217
0.0040084
0.000555737
0.000922294
0.00124434
0.00151319
0.0016362
0.00171496
0.00178362
0.00186968
0.00199235
0.00216091
0.00237521
0.00262829
0.0029094
0.00320617
0.00350559
0.00379444
0.00405988
0.00429004
0.00447452
0.00460448
0.00467411
0.00468794
0.00467261
0.00467762
9.45035e-07
5.24643e-06
1.72475e-05
3.75784e-05
6.07799e-05
0.000102407
3.19837e-05
7.2439e-05
0.000132029
0.000191193
0.000238635
0.000284966
0.000181447
0.00014599
0.000248263
0.000335037
0.000395591
0.000427454
0.00019988
0.000198017
0.000336036
0.000443072
0.00051512
0.00055228
4.9334e-05
0.0002341
0.000403156
0.000525432
0.000610362
0.000659142
5.29344e-05
0.000265238
0.000454887
0.000589264
0.000685822
0.000749097
5.52783e-05
0.000292982
0.000495411
0.000639235
0.000746431
0.000822518
5.69948e-05
0.00031748
0.000527394
0.000678621
0.000795386
0.000882317
5.82585e-05
0.000338554
0.000551886
0.000709093
0.000834657
0.000931056
5.9165e-05
0.000355616
0.00056914
0.000731442
0.000865504
0.000970945
5.97791e-05
0.000367657
0.000579082
0.000745977
0.000888841
0.00100395
6.01565e-05
0.000373685
0.000581517
0.000752706
0.00090499
0.00103102
6.02143e-05
0.000373943
0.000576111
0.000751364
0.000913744
0.00105242
5.99414e-05
0.000368839
0.000562963
0.000741266
0.00091441
0.00106769
5.92988e-05
0.000358292
0.000541641
0.000722218
0.000905842
0.00107619
5.82722e-05
0.000342082
0.000512047
0.000692882
0.00088637
0.00107609
5.68151e-05
0.000320118
0.000474067
0.000652182
0.000853332
0.00106453
5.48582e-05
0.000292289
0.000427694
0.000598666
0.000803062
0.00103838
5.22972e-05
0.000258399
0.000373099
0.000531312
0.000732481
0.000989627
4.89611e-05
0.00021802
0.000311003
0.000449525
0.000638644
0.000905553
0.000199457
0.000170326
0.000242238
0.00035416
0.000519666
0.00077212
0.000182172
0.000115515
0.000166674
0.000248524
0.000377859
0.000575495
3.20063e-05
5.29234e-05
8.38066e-05
0.000139836
0.00022437
0.00032532
9.09848e-07
4.26761e-06
1.62484e-05
5.02798e-05
0.000112911
0.000201789
0.000395106
0.00071967
0.00105276
0.00132313
0.00151582
0.00161652
0.00169009
0.00176463
0.0018631
0.0020009
0.00218451
0.00241235
0.00267718
0.00296868
0.00327539
0.00358602
0.00389041
0.00418006
0.0044474
0.00468374
0.00487822
0.00502188
0.00511677
0.00519275
0.000337843
0.000582613
0.000868703
0.00113886
0.00137334
0.00150916
0.00159531
0.00166783
0.00175003
0.00186092
0.00201278
0.00221013
0.00245078
0.00272801
0.00303313
0.00335768
0.0036948
0.00403887
0.00438262
0.00471255
0.00500792
0.00523567
0.00541808
0.00552704
0.000356897
0.000532985
0.000710251
0.000965638
0.00119832
0.00138867
0.00149429
0.00157375
0.00164888
0.00173983
0.00186266
0.00202739
0.00223752
0.00249122
0.00278385
0.00311075
0.00346889
0.00385552
0.00426273
0.00467111
0.00504165
0.00533966
0.00558648
0.00571684
0.000503105
0.000536673
0.000633724
0.000817431
0.00103654
0.00124139
0.0013854
0.00147838
0.0015549
0.0016342
0.00173382
0.00186751
0.00204386
0.0022664
0.00253538
0.00285073
0.00321387
0.00362558
0.00407838
0.00454825
0.00497669
0.00533911
0.00563419
0.00578716
0.000652959
0.000579382
0.000639164
0.000718594
0.000894861
0.00109263
0.00126519
0.00137796
0.00146319
0.00153912
0.00162319
0.00173081
0.00187409
0.00206118
0.0022973
0.00258724
0.00293727
0.00335276
0.00382901
0.00434073
0.00481546
0.00523233
0.00556756
0.00574714
0.000771869
0.000691519
0.000684569
0.000697615
0.000800759
0.000960528
0.00112822
0.00126412
0.00136605
0.0014477
0.00152524
0.00161441
0.00172916
0.0018809
0.0020789
0.00233229
0.00265204
0.00304885
0.0035236
0.00405438
0.00456309
0.00502293
0.00539093
0.00560211
0.000867229
0.000819602
0.0007589
0.000748106
0.000753151
0.000871561
0.00101545
0.00115119
0.00126497
0.00135597
0.00143422
0.0015132
0.00160664
0.00172731
0.00188692
0.00209762
0.00237395
0.00273172
0.00317934
0.00370312
0.00423054
0.00471917
0.00511137
0.00535847
0.000943661
0.000931397
0.000865794
0.0008236
0.000800829
0.00081508
0.000927514
0.00104792
0.00116387
0.00126259
0.00134549
0.00142129
0.0015015
0.00159829
0.00172393
0.00189176
0.00211801
0.00242193
0.00281942
0.00330829
0.00383504
0.00433279
0.00474855
0.00502161
0.00100521
0.00101997
0.000973631
0.000913404
0.000885582
0.000836454
0.000876919
0.000969223
0.00107148
0.00117034
0.00125724
0.00133398
0.00140791
0.00148889
0.00158807
0.00171813
0.0018949
0.00213843
0.00246951
0.00289731
0.00340099
0.00388498
0.00431994
0.00460656
0.00105605
0.00108991
0.0010672
0.00101693
0.000969181
0.000932323
0.000887319
0.000922167
0.000998327
0.00108596
0.00117169
0.00124953
0.00132135
0.0013934
0.00147437
0.00157496
0.00170887
0.00189429
0.00215325
0.0025043
0.00294721
0.00341232
0.00384073
0.00413387
0.00109929
0.00114648
0.0011437
0.00110922
0.00105937
0.00102688
0.000963629
0.000936906
0.000963445
0.00102313
0.00109645
0.00117044
0.00124028
0.00130737
0.00137702
0.00145702
0.00155792
0.00169429
0.00188561
0.00215356
0.00251123
0.00293688
0.0033336
0.00363432
0.001137
0.00119435
0.00120576
0.00118702
0.00115022
0.00110751
0.00106626
0.000999583
0.000980375
0.000998949
0.00104524
0.00110506
0.00116805
0.00123001
0.00129197
0.00135837
0.00143611
0.00153551
0.0016713
0.00186281
0.00212965
0.00247892
0.00284415
0.00312746
0.00117067
0.0012369
0.00125785
0.00125177
0.00122795
0.00119056
0.00115786
0.00109456
0.00104003
0.00102298
0.00103378
0.00106753
0.00111436
0.0011664
0.00121997
0.00127587
0.00133771
0.00141127
0.00150615
0.0016364
0.00182017
0.00207434
0.00239465
0.00264582
0.00120096
0.0012765
0.00130422
0.00130726
0.00129498
0.00127024
0.00123575
0.00119623
0.00112967
0.00108892
0.0010694
0.00107243
0.00109416
0.001128
0.00116831
0.00121243
0.00126075
0.00131592
0.0013826
0.00146901
0.00158776
0.00175605
0.00199169
0.00222135
0.00122777
0.00131399
0.00134761
0.00135736
0.00135448
0.00134102
0.0013164
0.00128723
0.00123587
0.00118265
0.00114816
0.0011268
0.00112156
0.00113083
0.0011508
0.00117815
0.0012113
0.00124992
0.00129546
0.0013517
0.0014252
0.00152671
0.00167458
0.00186718
0.0012503
0.0013499
0.00138969
0.00140506
0.00140998
0.00140672
0.0013941
0.00137193
0.00134196
0.00129465
0.00125645
0.00122375
0.00119964
0.00118599
0.00118271
0.00118858
0.00120214
0.00122213
0.00124813
0.00128104
0.00132332
0.00137941
0.00146078
0.00159866
0.00126677
0.0013836
0.00143103
0.00145211
0.00146415
0.00147004
0.00146862
0.00145834
0.00144012
0.00141305
0.00137745
0.00134626
0.0013157
0.00128879
0.00126759
0.00125319
0.00124582
0.00124508
0.00125043
0.00126168
0.00127928
0.00130437
0.00133934
0.00142543
0.00127405
0.00141341
0.00147101
0.00149888
0.00151838
0.00153291
0.00154152
0.00154233
0.00153535
0.00152191
0.00150034
0.00147493
0.00144718
0.00141795
0.0013892
0.00136278
0.00134002
0.00132166
0.00130801
0.00129915
0.00129515
0.00129647
0.00130043
0.00134534
0.00126842
0.00143619
0.00150755
0.00154382
0.00157216
0.00159588
0.00161375
0.00162444
0.00162687
0.00162245
0.00161103
0.0015938
0.00157337
0.00154849
0.00152037
0.00149092
0.0014618
0.00143406
0.00140842
0.00138546
0.00136528
0.00134871
0.00133305
0.00134948
0.00124915
0.00144688
0.00153681
0.00158278
0.00162176
0.00165657
0.00168501
0.00170499
0.00171579
0.00171752
0.00171252
0.00170047
0.00168207
0.0016599
0.0016349
0.00160809
0.00158058
0.00155254
0.00152409
0.0014959
0.00146886
0.0014431
0.00141689
0.00141592
0.00120747
0.00144191
0.00155327
0.0016084
0.00165852
0.00170643
0.00174857
0.00178087
0.00180167
0.00181024
0.00181049
0.00180175
0.00178582
0.00176444
0.00173881
0.00171001
0.00167894
0.00164748
0.00161722
0.00158891
0.00156311
0.00154196
0.00152756
0.0015318
0.00113206
0.00141966
0.00155017
0.00161086
0.00166872
0.00172706
0.0017821
0.00183088
0.00186879
0.00189013
0.00190148
0.00190212
0.00189218
0.0018737
0.00184881
0.00181945
0.00178758
0.00175472
0.00172207
0.00169067
0.00166154
0.00163621
0.00161848
0.00161701
0.00101642
0.00138135
0.00152189
0.00157966
0.00163198
0.00168776
0.00174373
0.00180111
0.00184707
0.00187666
0.00190543
0.00192265
0.00193001
0.00192895
0.00192059
0.00190576
0.00188661
0.00186405
0.0018394
0.00181417
0.00179013
0.00176928
0.00175421
0.00174857
0.000885394
0.0013288
0.00146988
0.00151245
0.00155332
0.00160204
0.00165435
0.00171306
0.00176224
0.00179744
0.00183715
0.0018687
0.00189181
0.00190715
0.00191596
0.00191817
0.00191358
0.0019041
0.00189124
0.0018765
0.00186152
0.00184835
0.00183941
0.00183688
7.9583e-07
4.63636e-06
2.52092e-05
6.30281e-05
0.000119527
4.59733e-05
2.78922e-05
2.62183e-05
8.37346e-05
0.000154175
0.000239808
0.000295579
0.00016676
6.57335e-05
0.000162531
0.000263753
0.000394165
0.000564554
0.000186841
0.000108808
0.000235368
0.000364171
0.000530541
0.000739963
4.72916e-05
0.000149978
0.000298001
0.000449714
0.000634393
0.000836161
4.86177e-05
0.000187238
0.000350055
0.000517839
0.000707122
0.000879642
5.04668e-05
0.000219142
0.000391875
0.000568975
0.000751218
0.00089314
5.16817e-05
0.000245164
0.000424135
0.000604117
0.000773002
0.000891363
5.24887e-05
0.000264676
0.000447215
0.000625204
0.000779218
0.000880241
5.29532e-05
0.000278041
0.000461832
0.000634452
0.000774679
0.000862229
5.30951e-05
0.000285157
0.00046874
0.000633808
0.00076209
0.000838389
5.29955e-05
0.000286364
0.000468442
0.000625079
0.000742534
0.000809278
5.26465e-05
0.000281241
0.00046132
0.000609487
0.000716784
0.00077485
5.21728e-05
0.000269578
0.000447703
0.000587815
0.000685346
0.000734737
5.1547e-05
0.000252543
0.000427996
0.000560654
0.000648411
0.000688458
5.07411e-05
0.000231544
0.000402867
0.000528529
0.000606095
0.000635856
4.9699e-05
0.000208482
0.000373523
0.000491959
0.000558848
0.000578465
4.80479e-05
0.000187369
0.000342059
0.000451235
0.000508073
0.000517209
4.69587e-05
0.000178396
0.000311155
0.000405323
0.000454826
0.000451334
0.000191409
0.000171172
0.000277593
0.000353919
0.000397127
0.000383427
0.000180276
0.00015309
0.000234497
0.000293566
0.000331029
0.000313651
0.000165196
0.000116954
0.00017403
0.000217893
0.000249765
0.000244349
2.93087e-05
5.6676e-05
9.00112e-05
0.000120604
0.000142149
0.000171977
9.16964e-07
3.26541e-06
7.87494e-06
1.5429e-05
2.50048e-05
4.94376e-05
0.000834432
0.00127987
0.0013975
0.00141758
0.00144067
0.0014716
0.00150943
0.00155658
0.00160516
0.00164121
0.00168545
0.00172794
0.00176561
0.00179812
0.00182559
0.00184833
0.0018662
0.0018788
0.0018858
0.00188848
0.00188864
0.00188765
0.00188717
0.0018893
0.000940685
0.0012379
0.00130577
0.00129903
0.00129574
0.00130176
0.00131857
0.00134622
0.00138306
0.00141527
0.00145542
0.0015008
0.00154558
0.00158685
0.00162291
0.00165518
0.00168475
0.00171282
0.00174066
0.00176717
0.00179156
0.00181391
0.00183441
0.00185387
0.00100291
0.0011881
0.00120258
0.00116669
0.00113452
0.00111351
0.00110708
0.00111611
0.00114114
0.00118194
0.00123308
0.00128944
0.00134678
0.00140335
0.00145642
0.00150559
0.00155007
0.00158937
0.00162347
0.00165344
0.00168
0.00170313
0.00172219
0.00174112
0.00102378
0.0011288
0.00109754
0.00103359
0.000973713
0.000927024
0.000898359
0.000893114
0.000904457
0.000924545
0.000954247
0.00099498
0.00104605
0.00110362
0.00116353
0.001223
0.00128098
0.00133633
0.0013882
0.00143615
0.00147985
0.0015194
0.00155289
0.00158502
0.00102047
0.00106477
0.000999985
0.000912287
0.000829289
0.000761408
0.000718429
0.000688585
0.000663315
0.000655215
0.000662334
0.000685807
0.000725286
0.000774542
0.000828831
0.000885254
0.000941699
0.000996363
0.00104775
0.00109479
0.00113755
0.0011775
0.00120747
0.00124545
0.00100398
0.00100345
0.000917306
0.000814247
0.000723465
0.000648375
0.000598052
0.000547529
0.000497339
0.000483563
0.000496203
0.000533826
0.000582067
0.000630224
0.000674147
0.000713445
0.000749227
0.000782771
0.000814277
0.000844077
0.000869806
0.000893029
0.00090443
0.000916627
0.000980114
0.000950955
0.00085387
0.000745251
0.000653304
0.000584082
0.000534949
0.000475697
0.000434662
0.000443183
0.000490702
0.000557305
0.00062146
0.000679494
0.000731321
0.000777477
0.000817792
0.000852641
0.000882194
0.000906032
0.000924965
0.000937786
0.000939621
0.000958636
0.00095284
0.000908824
0.000809062
0.000699824
0.000606509
0.000541673
0.000505133
0.000439018
0.0004237
0.000455362
0.000521251
0.000594614
0.000665553
0.000733197
0.000799543
0.000865743
0.000931307
0.000993582
0.00105189
0.00110823
0.00116262
0.00121354
0.00127002
0.0013673
0.000924442
0.000875026
0.00077762
0.000668337
0.000573954
0.000516479
0.000475681
0.000415833
0.000430096
0.000496522
0.000580085
0.000666677
0.000753172
0.000836275
0.000915738
0.000993934
0.00107523
0.00116413
0.00126373
0.0013756
0.0014974
0.00163477
0.001808
0.002001
0.000895173
0.0008444
0.000748152
0.000636527
0.000540565
0.000494902
0.00042335
0.00040997
0.000474405
0.000569459
0.000681165
0.000801816
0.000920252
0.00103372
0.00114241
0.00124693
0.00134923
0.00145456
0.0015725
0.00171583
0.00189146
0.00214737
0.00244868
0.00267164
0.000863334
0.000809367
0.000709943
0.00059131
0.000498167
0.000463122
0.000406137
0.000450506
0.000550846
0.000677236
0.000819846
0.000962621
0.00110363
0.00124593
0.00139247
0.00154568
0.00170746
0.00188004
0.00206854
0.00228443
0.00254975
0.00285788
0.00317658
0.00338646
0.000825855
0.000761781
0.000657016
0.000525636
0.000475891
0.000410401
0.00042564
0.000523863
0.000658627
0.000818074
0.000981303
0.00114211
0.00130119
0.00146062
0.00162441
0.00179931
0.00199528
0.00222494
0.00250141
0.00283412
0.00321983
0.00361223
0.00392463
0.0041606
0.000779253
0.000697205
0.000579584
0.000470038
0.00043635
0.000400263
0.000490723
0.000628368
0.000795936
0.00097927
0.00116477
0.00135231
0.00154168
0.00173363
0.00193117
0.002141
0.00237494
0.00264977
0.0029827
0.00338086
0.00383058
0.00424713
0.00459439
0.00485307
0.00072259
0.000621925
0.000491836
0.000441779
0.000386505
0.000451955
0.000584735
0.000756514
0.000957912