/*--------------------------------*- C++ -*----------------------------------*\
  =========                 |
  \\      /  F ield         | OpenFOAM: The Open Source CFD Toolbox
   \\    /   O peration     | Website:  https://openfoam.org
    \\  /    A nd           | Version:  11
     \\/     M anipulation  |
\*---------------------------------------------------------------------------*/
FoamFile
{
    format      ascii;
    class       volScalarField;
    location    "1.76";
    object      p;
}
// * * * * * * * * * * * * * * * * * * * * * * * * * * * * * * * * * * * * * //

dimensions      [0 2 -2 0 0 0 0];

internalField   nonuniform List<scalar> 
2880
(
1.35324
1.37886
1.39573
1.39891
1.33687
1.10334
1.35296
1.37461
1.3802
1.37278
1.27783
1.08506
1.35173
1.36873
1.36485
1.348
1.25149
1.07957
1.351
1.36361
1.3537
1.3301
1.23858
1.0898
1.35206
1.36009
1.34644
1.31832
1.23302
1.10274
1.35242
1.35761
1.34137
1.31052
1.23088
1.11374
1.35166
1.35539
1.33747
1.30511
1.22994
1.12307
1.35062
1.35303
1.33433
1.30102
1.22961
1.13151
1.34941
1.35048
1.3318
1.29783
1.22988
1.13939
1.34809
1.3478
1.32973
1.29553
1.23084
1.1468
1.34667
1.3451
1.32808
1.29417
1.23254
1.15357
1.34519
1.34248
1.32688
1.29371
1.235
1.16007
1.34369
1.34002
1.32616
1.29411
1.23819
1.16637
1.3422
1.33783
1.32592
1.29529
1.24206
1.17253
1.34073
1.33594
1.32612
1.29715
1.24658
1.17861
1.3393
1.33434
1.3267
1.2996
1.25174
1.18469
1.33812
1.33301
1.32753
1.3025
1.25748
1.19081
1.3382
1.33198
1.32844
1.30566
1.26367
1.19704
1.33932
1.33125
1.32911
1.30884
1.27
1.20336
1.33887
1.33043
1.32907
1.31164
1.27604
1.20956
1.33699
1.32902
1.32795
1.31341
1.28118
1.21502
1.33537
1.3269
1.32563
1.31341
1.28483
1.21869
1.3348
1.32445
1.32241
1.31191
1.28717
1.2195
1.33479
1.32248
1.3206
1.31123
1.28852
1.21046
0.0625879
0.0727536
0.119426
0.138326
0.155022
0.169499
0.181836
0.192881
0.203058
0.212501
0.221265
0.229387
0.236902
0.24384
0.250218
0.256039
0.261303
0.266025
0.270197
0.273478
0.275099
0.276929
0.290758
0.321005
0.415257
0.278886
0.268816
0.2587
0.25348
0.252585
0.253925
0.256604
0.260116
0.264086
0.268255
0.272456
0.276574
0.280527
0.284244
0.287651
0.290687
0.293318
0.29543
0.296444
0.295794
0.29776
0.31566
0.331853
0.625622
0.452189
0.398185
0.364165
0.342217
0.328976
0.321037
0.316445
0.314059
0.313134
0.313174
0.313848
0.314922
0.316222
0.317606
0.318945
0.320142
0.321139
0.321764
0.32136
0.319706
0.322476
0.342613
0.350128
0.759118
0.583936
0.505336
0.455035
0.421036
0.398252
0.38273
0.372003
0.364546
0.359366
0.355798
0.353388
0.351813
0.350827
0.350228
0.349845
0.349549
0.349256
0.348754
0.347347
0.34502
0.34807
0.368942
0.37178
0.848888
0.684075
0.593506
0.532741
0.490246
0.460301
0.438796
0.423056
0.411366
0.402587
0.395948
0.39091
0.387085
0.384173
0.381926
0.380135
0.378641
0.377339
0.375983
0.373854
0.371049
0.374129
0.395022
0.395121
0.910783
0.759874
0.665087
0.598457
0.550392
0.515316
0.489258
0.469553
0.454428
0.442683
0.433492
0.426267
0.420574
0.416074
0.412479
0.409546
0.407093
0.40499
0.402967
0.40029
0.397134
0.400126
0.420595
0.419001
0.955106
0.817763
0.723065
0.653756
0.602316
0.563726
0.534322
0.511571
0.493733
0.479608
0.468349
0.459348
0.452142
0.446359
0.441682
0.43784
0.434624
0.43189
0.429348
0.426267
0.42288
0.425732
0.445449
0.442824
0.988112
0.862687
0.770186
0.700185
0.646934
0.606065
0.574295
0.549278
0.52936
0.513376
0.50049
0.490085
0.481684
0.474892
0.469368
0.464814
0.461006
0.457783
0.454846
0.451483
0.447974
0.450655
0.469355
0.466158
1.01347
0.898088
0.808643
0.739133
0.685126
0.642895
0.609532
0.582894
0.561437
0.54405
0.529923
0.518445
0.509131
0.501572
0.495403
0.490309
0.486051
0.48246
0.479235
0.475697
0.472161
0.474646
0.492114
0.488677
1.03345
0.926327
0.840165
0.771765
0.717686
0.674757
0.640401
0.612666
0.590122
0.571721
0.556688
0.544424
0.534444
0.526325
0.519687
0.5142
0.509614
0.505757
0.502336
0.498713
0.495228
0.497493
0.513552
0.510116
1.04977
0.94909
0.866046
0.799023
0.7453
0.702147
0.667256
0.638845
0.615587
0.5965
0.580845
0.568042
0.557606
0.549106
0.542148
0.536391
0.531579
0.527543
0.524002
0.520369
0.516995
0.519014
0.533528
0.530262
1.06316
0.967539
0.887254
0.82166
0.768543
0.725501
0.690426
0.661673
0.638007
0.618506
0.602468
0.589333
0.578618
0.569887
0.562733
0.556809
0.551858
0.547713
0.544114
0.540531
0.537312
0.539059
0.551932
0.548945
1.07426
0.982489
0.904497
0.84026
0.787887
0.745193
0.710203
0.681374
0.657548
0.637857
0.621636
0.608341
0.597495
0.588655
0.581409
0.575401
0.570379
0.566185
0.562577
0.559091
0.556055
0.557508
0.568684
0.566042
1.08345
0.99448
0.91828
0.855264
0.803707
0.761534
0.72684
0.69815
0.674367
0.654671
0.638429
0.625115
0.614259
0.605411
0.598153
0.592129
0.587093
0.582894
0.579317
0.57596
0.573126
0.574269
0.583737
0.581466
1.09097
1.00384
0.928939
0.86699
0.81629
0.77478
0.740555
0.712181
0.688608
0.669058
0.652928
0.63971
0.628938
0.620162
0.612957
0.60697
0.601963
0.597796
0.594279
0.591074
0.588449
0.589278
0.597067
0.595168
1.09687
1.01072
0.936656
0.875649
0.825851
0.785136
0.751533
0.723627
0.700404
0.681124
0.665212
0.65218
0.641568
0.632924
0.625821
0.619912
0.614968
0.610859
0.607423
0.604385
0.601972
0.6025
0.608689
0.607131
1.10109
1.01509
0.941476
0.881358
0.832548
0.79277
0.759938
0.732634
0.709879
0.690969
0.675361
0.662584
0.652188
0.643721
0.636757
0.630955
0.626099
0.622068
0.618728
0.615863
0.61367
0.61395
0.618669
0.617296
1.10341
1.01681
0.943333
0.884164
0.836498
0.797827
0.765914
0.739335
0.717149
0.698692
0.683453
0.670984
0.660843
0.652583
0.645782
0.640108
0.635354
0.631411
0.62817
0.625468
0.62349
0.623585
0.626923
0.625372
1.10342
1.01553
0.942097
0.884075
0.837805
0.800447
0.769605
0.743864
0.722332
0.704392
0.689571
0.677444
0.667584
0.659549
0.652926
0.64739
0.642745
0.638891
0.635738
0.633172
0.631339
0.631174
0.63328
0.631906
1.10045
1.01078
0.937581
0.8811
0.836587
0.80078
0.771162
0.746358
0.725547
0.708172
0.6938
0.682036
0.67247
0.664672
0.658234
0.652843
0.648312
0.644549
0.641484
0.639037
0.637296
0.636827
0.637955
0.637119
1.09386
1.00195
0.92955
0.875293
0.833014
0.799013
0.770754
0.746964
0.726922
0.710139
0.696231
0.684837
0.675568
0.668006
0.661757
0.656516
0.652104
0.648438
0.645464
0.64313
0.641473
0.640782
0.641183
0.640716
1.08326
0.988281
0.917747
0.866821
0.827346
0.795386
0.768579
0.745844
0.726587
0.710403
0.696958
0.685926
0.676944
0.669612
0.663547
0.658455
0.654164
0.650595
0.647709
0.645472
0.643886
0.643051
0.642966
0.642759
1.06617
0.967965
0.902079
0.856088
0.819978
0.790202
0.764866
0.743178
0.724693
0.709087
0.696082
0.685388
0.676672
0.669552
0.663661
0.658712
0.654537
0.651063
0.648258
0.646099
0.644567
0.643656
0.643327
0.643283
1.02049
0.93771
0.883535
0.843968
0.811445
0.783795
0.759848
0.739139
0.72137
0.706298
0.693692
0.683301
0.674818
0.667887
0.662152
0.657334
0.653268
0.649883
0.647148
0.645042
0.643543
0.642643
0.64231
0.642307
1.02405
0.995349
0.96254
0.92098
0.883697
0.855212
1.03071
0.998853
0.968121
0.928095
0.89633
0.880907
1.03939
1.00502
0.975284
0.93658
0.908156
0.892394
1.03629
1.0106
0.981381
0.944508
0.9176
0.897842
1.03177
1.01386
0.98557
0.950693
0.923946
0.900686
1.03065
1.01553
0.988187
0.954994
0.927269
0.900995
1.02988
1.0165
0.989725
0.957669
0.92823
0.89922
1.02842
1.01714
0.990527
0.959062
0.927477
0.895871
1.0266
1.01776
0.990884
0.959478
0.925448
0.891274
1.02503
1.01867
0.991072
0.959169
0.922455
0.885601
1.02419
1.02021
0.991329
0.958377
0.918707
0.878904
1.02441
1.02261
0.991856
0.957313
0.914318
0.871148
1.02592
1.02601
0.992824
0.956152
0.90935
0.862236
1.02886
1.03018
0.994505
0.955001
0.90384
0.852017
1.03308
1.03543
0.996865
0.954042
0.897795
0.840254
1.03835
1.0416
0.999945
0.953398
0.89123
0.826734
1.04432
1.04831
1.0037
0.95318
0.884204
0.811097
1.0505
1.0551
1.00795
0.953446
0.876851
0.792931
1.05633
1.06146
1.01248
0.954205
0.869297
0.772069
1.06128
1.0669
1.01712
0.955691
0.861775
0.748852
1.06499
1.07135
1.02226
0.95915
0.855855
0.724381
1.06782
1.0757
1.0295
0.96684
0.855709
0.700554
1.07088
1.08093
1.03981
0.978416
0.863538
0.676081
1.07389
1.0848
1.04688
0.983768
0.862018
0.659309
0.926482
0.903601
0.865521
0.83179
0.802359
0.776498
0.753734
0.733873
0.71673
0.702122
0.689862
0.679729
0.671443
0.664669
0.659068
0.654367
0.6504
0.647095
0.644419
0.642345
0.640857
0.640034
0.639945
0.639883
0.901383
0.880392
0.850696
0.820561
0.79316
0.768558
0.746696
0.727509
0.710874
0.696648
0.684668
0.674739
0.666605
0.659954
0.654461
0.649857
0.645975
0.642739
0.64011
0.638043
0.636546
0.63587
0.636262
0.63604
0.894282
0.86713
0.839034
0.810293
0.78393
0.760087
0.738837
0.720139
0.703885
0.689945
0.678173
0.66839
0.660359
0.653791
0.648374
0.643843
0.64003
0.636851
0.634255
0.632173
0.630649
0.630196
0.631305
0.630809
0.888708
0.857885
0.829072
0.800545
0.774541
0.75107
0.730178
0.711793
0.695794
0.68205
0.670414
0.660718
0.652743
0.646217
0.640843
0.636362
0.632597
0.629463
0.626888
0.624773
0.623214
0.623073
0.625136
0.624182
0.882451
0.849576
0.819636
0.790844
0.764802
0.741422
0.720682
0.702458
0.686604
0.672971
0.661408
0.651747
0.643783
0.637261
0.631899
0.627438
0.623703
0.620595
0.618027
0.615857
0.614227
0.614402
0.617661
0.616372
0.875932
0.841282
0.810134
0.780834
0.754511
0.731023
0.710274
0.69209
0.676289
0.662697
0.651153
0.641485
0.633495
0.626943
0.62156
0.617093
0.61336
0.610256
0.607668
0.605402
0.60361
0.603984
0.60862
0.607603
0.869051
0.832655
0.800218
0.770238
0.743468
0.719727
0.698852
0.680616
0.664798
0.651197
0.639632
0.629926
0.621883
0.615276
0.609848
0.605351
0.601599
0.598477
0.595847
0.593453
0.591464
0.59206
0.598149
0.597156
0.861568
0.823408
0.789593
0.7588
0.731469
0.707376
0.686292
0.667942
0.652063
0.638421
0.626813
0.617053
0.608945
0.602268
0.59678
0.592238
0.588455
0.585306
0.582625
0.580094
0.577909
0.578795
0.586458
0.585213
0.853295
0.813255
0.777972
0.746264
0.718296
0.693789
0.672451
0.653955
0.637995
0.624302
0.61265
0.602837
0.594664
0.587919
0.582368
0.577777
0.573957
0.570779
0.568046
0.565373
0.562991
0.564191
0.573509
0.571939
0.844039
0.801903
0.76505
0.732354
0.703711
0.678767
0.657164
0.638523
0.62249
0.608762
0.597084
0.587237
0.579019
0.572219
0.566615
0.561981
0.558131
0.554926
0.552146
0.549338
0.546758
0.54827
0.559281
0.557368
0.83355
0.789019
0.750483
0.716757
0.687443
0.662083
0.640245
0.621494
0.605428
0.591706
0.580043
0.570204
0.561977
0.555154
0.549522
0.544863
0.540996
0.53778
0.534967
0.532039
0.529269
0.53108
0.543784
0.541537
0.821516
0.774206
0.73387
0.699111
0.66918
0.643478
0.621482
0.602696
0.586673
0.573028
0.56145
0.551681
0.543502
0.536705
0.531083
0.526432
0.522574
0.519369
0.516547
0.513528
0.510587
0.512679
0.52704
0.524503
0.807537
0.756979
0.714726
0.678981
0.648557
0.62265
0.600631
0.581937
0.566072
0.552613
0.541217
0.531608
0.523555
0.516852
0.511299
0.5067
0.502889
0.499727
0.496931
0.493861
0.490784
0.493137
0.509077
0.506339
0.791097
0.736732
0.69246
0.655847
0.625138
0.59925
0.577415
0.558999
0.543458
0.530333
0.519252
0.509922
0.5021
0.495581
0.490172
0.485688
0.481974
0.478898
0.47617
0.473101
0.469938
0.472532
0.489932
0.48714
0.771545
0.712718
0.666337
0.629072
0.598404
0.572869
0.551519
0.533641
0.518649
0.506054
0.495462
0.486562
0.479106
0.472887
0.467719
0.46343
0.459878
0.456942
0.454331
0.451326
0.448141
0.450954
0.469649
0.467012
0.74792
0.683999
0.635429
0.59788
0.567741
0.543033
0.522584
0.505596
0.491448
0.479636
0.469752
0.461474
0.454551
0.448776
0.443973
0.439982
0.436675
0.433945
0.431513
0.428641
0.425507
0.42851
0.448275
0.446083
0.718962
0.649333
0.598554
0.561329
0.532431
0.509203
0.490214
0.474574
0.461649
0.450937
0.442031
0.434611
0.428425
0.423273
0.418989
0.415426
0.41247
0.410033
0.407853
0.405193
0.402189
0.405331
0.425865
0.424521
0.682984
0.606909
0.554277
0.518339
0.491654
0.470779
0.453974
0.44027
0.429041
0.419816
0.412216
0.405935
0.400733
0.396421
0.392845
0.389873
0.387407
0.385375
0.38354
0.381187
0.378396
0.381589
0.402485
0.402587
0.63761
0.554114
0.500982
0.467717
0.444551
0.427131
0.413416
0.40237
0.393412
0.38614
0.380231
0.375419
0.371492
0.368279
0.365642
0.363466
0.361669
0.360192
0.35883
0.356906
0.354421
0.357507
0.378199
0.380753
0.579529
0.487507
0.436883
0.408243
0.390248
0.377639
0.3681
0.360573
0.354564
0.349784
0.346011
0.343047
0.340727
0.338913
0.337491
0.336365
0.335466
0.334751
0.334051
0.332742
0.33069
0.333377
0.352971
0.359914
0.504508
0.402826
0.359999
0.338747
0.327951
0.321755
0.317642
0.314613
0.312322
0.310645
0.309502
0.308805
0.308461
0.308382
0.308491
0.30872
0.309015
0.309348
0.309598
0.309239
0.307884
0.309601
0.326304
0.341763
0.406259
0.295389
0.268252
0.258354
0.257121
0.25911
0.26178
0.264302
0.266559
0.268644
0.270663
0.272676
0.274694
0.276705
0.278685
0.280608
0.282451
0.284209
0.285853
0.287038
0.287096
0.287531
0.298635
0.329462
0.267448
0.161567
0.159889
0.166693
0.177603
0.189614
0.200431
0.209564
0.217212
0.223735
0.22946
0.234627
0.239384
0.243821
0.247988
0.25192
0.25565
0.259229
0.2627
0.265865
0.268165
0.270986
0.283114
0.306328
0.0512176
0.00916305
0.0381397
0.0651697
0.0903119
0.113734
0.133811
0.150486
0.164313
0.175923
0.185878
0.194616
0.202447
0.209576
0.216141
0.222239
0.227949
0.233339
0.238395
0.242801
0.246376
0.252489
0.268926
0.268214
-0.505674
-0.491495
-0.493007
-0.507907
-0.535805
-0.603306
-0.508207
-0.495484
-0.500732
-0.518953
-0.546037
-0.60855
-0.513696
-0.500716
-0.509842
-0.528988
-0.550766
-0.581046
-0.515163
-0.504727
-0.516565
-0.535813
-0.554127
-0.572648
-0.512262
-0.507796
-0.521544
-0.540786
-0.558019
-0.572747
-0.511596
-0.511071
-0.525798
-0.545099
-0.562869
-0.576688
-0.513506
-0.514692
-0.529711
-0.54909
-0.56783
-0.582656
-0.515567
-0.518468
-0.533335
-0.552763
-0.572491
-0.589186
-0.517564
-0.522222
-0.536615
-0.556049
-0.576706
-0.595428
-0.519474
-0.525803
-0.539471
-0.558865
-0.580365
-0.601007
-0.521247
-0.529087
-0.541835
-0.561132
-0.58336
-0.605704
-0.522845
-0.531972
-0.543669
-0.562789
-0.585613
-0.609373
-0.524251
-0.534397
-0.544995
-0.56381
-0.587061
-0.611931
-0.52547
-0.536332
-0.545832
-0.564262
-0.587631
-0.613413
-0.526523
-0.537762
-0.54619
-0.564228
-0.587305
-0.613889
-0.527434
-0.538701
-0.546098
-0.563696
-0.586213
-0.613544
-0.52825
-0.539199
-0.545655
-0.562658
-0.584553
-0.612532
-0.52905
-0.539342
-0.54503
-0.561295
-0.582494
-0.611087
-0.529772
-0.53928
-0.544426
-0.559919
-0.580177
-0.609666
-0.528571
-0.539343
-0.544113
-0.558873
-0.577888
-0.608811
-0.526078
-0.540211
-0.544516
-0.558579
-0.576129
-0.609219
-0.526916
-0.54222
-0.546156
-0.559375
-0.575182
-0.610413
-0.52991
-0.544794
-0.548911
-0.560797
-0.574048
-0.608559
-0.531258
-0.546532
-0.549731
-0.5592
-0.571141
-0.611955
-0.286698
-0.16215
-0.0922365
-0.043156
-0.00248673
0.0327233
0.0625719
0.0874016
0.108022
0.12528
0.139939
0.152623
0.163802
0.173807
0.182861
0.191106
0.198636
0.2055
0.21161
0.216577
0.220543
0.228065
0.246143
0.23412
-0.410922
-0.312725
-0.219435
-0.152176
-0.097761
-0.0515884
-0.0122771
0.0208594
0.0486347
0.0719661
0.0917301
0.108692
0.123465
0.136503
0.14812
0.158509
0.167783
0.175989
0.183043
0.188612
0.193089
0.201356
0.219732
0.204292
-0.475323
-0.405172
-0.324565
-0.254146
-0.191963
-0.137203
-0.0895345
-0.0484446
-0.0134476
0.0162173
0.0414065
0.0629452
0.0815501
0.0977884
0.112069
0.124656
0.1357
0.145278
0.153359
0.159747
0.165008
0.173883
0.192065
0.176564
-0.524492
-0.463294
-0.406235
-0.345054
-0.282298
-0.222419
-0.168
-0.119745
-0.0777433
-0.0416522
-0.0108048
0.0155797
0.0382599
0.0578896
0.0749746
0.0898627
0.10277
0.113828
0.12309
0.130509
0.136753
0.146209
0.164028
0.150319
-0.555548
-0.511115
-0.471477
-0.423513
-0.366711
-0.305801
-0.246699
-0.192321
-0.143751
-0.101281
-0.0646166
-0.0331425
-0.00613289
0.0171134
0.0371874
0.0545311
0.0694463
0.0821438
0.0927677
0.101414
0.108791
0.118844
0.136258
0.125536
-0.574733
-0.552618
-0.525471
-0.49071
-0.443552
-0.385898
-0.32464
-0.265413
-0.210898
-0.162239
-0.119677
-0.0828962
-0.0512938
-0.024173
-0.000880239
0.01912
0.0362293
0.0507523
0.0629305
0.0729828
0.0816198
0.0923078
0.109323
0.102343
-0.589493
-0.585746
-0.570939
-0.548626
-0.511903
-0.460882
-0.400492
-0.338078
-0.27842
-0.223901
-0.175471
-0.133234
-0.0967981
-0.0655359
-0.0387669
-0.0158756
0.00364163
0.0201914
0.0341156
0.0457366
0.0557459
0.0671325
0.0837678
0.0809073
-0.602289
-0.610759
-0.608846
-0.597791
-0.57176
-0.528769
-0.472341
-0.408935
-0.345279
-0.285415
-0.231282
-0.183538
-0.142093
-0.106454
-0.0759571
-0.0499317
-0.0277818
-0.00899997
0.00685542
0.0201964
0.0316887
0.0438465
0.0601335
0.061457
-0.61355
-0.629964
-0.639073
-0.638014
-0.622419
-0.588091
-0.53768
-0.475892
-0.409917
-0.345557
-0.286091
-0.232944
-0.186433
-0.146267
-0.111852
-0.0824843
-0.0574956
-0.0362896
-0.0183321
-0.00314173
0.00995068
0.0229746
0.0389898
0.0442967
-0.623227
-0.645073
-0.661926
-0.669379
-0.662599
-0.637454
-0.59388
-0.536079
-0.469981
-0.402493
-0.338428
-0.280232
-0.228791
-0.184116
-0.145723
-0.112895
-0.0849274
-0.0611558
-0.0409705
-0.0238201
-0.00902788
0.0049833
0.0208793
0.0297238
-0.631213
-0.656819
-0.678458
-0.69199
-0.692061
-0.674948
-0.638604
-0.586114
-0.52226
-0.453625
-0.386224
-0.323726
-0.267781
-0.218819
-0.17666
-0.140435
-0.109479
-0.0830845
-0.0606113
-0.0414387
-0.0249057
-0.00975629
0.00620988
0.0178972
-0.637446
-0.665442
-0.689583
-0.706443
-0.711152
-0.699621
-0.669954
-0.623071
-0.563117
-0.495569
-0.426713
-0.361201
-0.301491
-0.249163
-0.203411
-0.164042
-0.130443
-0.101535
-0.0768395
-0.0556978
-0.0374478
-0.0210681
-0.00485968
0.00891785
-0.641976
-0.671172
-0.696077
-0.713819
-0.720505
-0.712142
-0.687005
-0.645131
-0.589567
-0.524852
-0.456647
-0.389996
-0.328133
-0.27291
-0.225112
-0.183134
-0.146587
-0.115664
-0.0891273
-0.0662811
-0.0464952
-0.0289377
-0.0123135
0.00287973
-0.644981
-0.674365
-0.69859
-0.715232
-0.721384
-0.71377
-0.690559
-0.652075
-0.600306
-0.53911
-0.473196
-0.407409
-0.345223
-0.288841
-0.239363
-0.195301
-0.157443
-0.125143
-0.0970278
-0.0729345
-0.0520223
-0.0334893
-0.0164112
-0.000462734
-0.646844
-0.675588
-0.697958
-0.711968
-0.715546
-0.706305
-0.682776
-0.645466
-0.596181
-0.538092
-0.475164
-0.411584
-0.350719
-0.294769
-0.244822
-0.200915
-0.162355
-0.128892
-0.100324
-0.0756852
-0.0541622
-0.0350488
-0.0177461
-0.00161752
-0.64809
-0.675613
-0.695284
-0.70552
-0.705011
-0.692273
-0.666484
-0.62836
-0.57992
-0.523915
-0.463735
-0.40285
-0.344306
-0.290124
-0.241355
-0.198227
-0.160347
-0.12744
-0.0990717
-0.0744981
-0.0530403
-0.0339849
-0.016939
-0.00109955
-0.649327
-0.675507
-0.691878
-0.697617
-0.692068
-0.674465
-0.644965
-0.604556
-0.555441
-0.500323
-0.442121
-0.383771
-0.327819
-0.276074
-0.229447
-0.188139
-0.151915
-0.12041
-0.0931406
-0.0695123
-0.0489377
-0.0306994
-0.0145874
0.00046409
-0.651258
-0.676348
-0.689267
-0.690142
-0.679078
-0.655988
-0.621741
-0.57798
-0.52696
-0.471612
-0.414485
-0.358106
-0.304559
-0.255327
-0.211156
-0.172181
-0.138167
-0.108707
-0.0833068
-0.0614086
-0.0424734
-0.0257995
-0.0113134
0.00233123
-0.654782
-0.679216
-0.688953
-0.684981
-0.668337
-0.639558
-0.600085
-0.55222
-0.498519
-0.441909
-0.384934
-0.329781
-0.278146
-0.231158
-0.189365
-0.152802
-0.121183
-0.0940635
-0.0709267
-0.051225
-0.0344508
-0.0199578
-0.00763741
0.00378357
-0.661127
-0.685447
-0.69225
-0.683753
-0.66189
-0.627662
-0.58296
-0.530507
-0.473537
-0.414899
-0.357151
-0.302327
-0.251888
-0.206645
-0.166908
-0.132574
-0.103261
-0.078464
-0.057639
-0.0402473
-0.0258036
-0.013778
-0.00394267
0.00439103
-0.671217
-0.696053
-0.700809
-0.687807
-0.661434
-0.62226
-0.572573
-0.515589
-0.454869
-0.39358
-0.334269
-0.278903
-0.22876
-0.184476
-0.146177
-0.113604
-0.0862786
-0.0636051
-0.0449683
-0.0298063
-0.0176423
-0.00800805
-0.000563232
0.00462422
-0.685379
-0.712136
-0.715373
-0.698593
-0.668279
-0.624553
-0.570054
-0.508429
-0.443636
-0.379171
-0.317666
-0.261029
-0.210442
-0.166354
-0.128844
-0.0974286
-0.0715558
-0.0505509
-0.0337068
-0.0203716
-0.0100245
-0.00223088
0.0034597
0.00640526
-0.706254
-0.736009
-0.736403
-0.716712
-0.683013
-0.635093
-0.575824
-0.509177
-0.439659
-0.371268
-0.306836
-0.248257
-0.196643
-0.152305
-0.11498
-0.0842102
-0.0593321
-0.0395738
-0.0241769
-0.0124317
-0.00375249
0.00260941
0.00769224
0.0102824
-0.755186
-0.770793
-0.763924
-0.741646
-0.705387
-0.654251
-0.590398
-0.518137
-0.442863
-0.369352
-0.300855
-0.239349
-0.185875
-0.140561
-0.103005
-0.0725342
-0.048363
-0.0296823
-0.0157229
-0.00578732
0.000969201
0.00593839
0.0112728
0.0147464
-0.848745
-0.867406
-0.889557
-0.916144
-0.940608
-0.95909
-0.84252
-0.86541
-0.886653
-0.913411
-0.931827
-0.926297
-0.829993
-0.861001
-0.880985
-0.906962
-0.921769
-0.915976
-0.82298
-0.85692
-0.876036
-0.900662
-0.91413
-0.912308
-0.828206
-0.854809
-0.873142
-0.89606
-0.90883
-0.911608
-0.840071
-0.854344
-0.871942
-0.892946
-0.90576
-0.912768
-0.847211
-0.854223
-0.871456
-0.890745
-0.904199
-0.91461
-0.848724
-0.854047
-0.871182
-0.889053
-0.903264
-0.916257
-0.84982
-0.853636
-0.870875
-0.887514
-0.902336
-0.916924
-0.851137
-0.85287
-0.870314
-0.885863
-0.900935
-0.916065
-0.852162
-0.851641
-0.869322
-0.883908
-0.898762
-0.913415
-0.852465
-0.849836
-0.86788
-0.881531
-0.895657
-0.909001
-0.851801
-0.8475
-0.865926
-0.878746
-0.891708
-0.90295
-0.850072
-0.844573
-0.863662
-0.875646
-0.887077
-0.895584
-0.847339
-0.841066
-0.861184
-0.872379
-0.882022
-0.887305
-0.843761
-0.837079
-0.858619
-0.869141
-0.876868
-0.878531
-0.83988
-0.832698
-0.85617
-0.866189
-0.872006
-0.869967
-0.839345
-0.828611
-0.854187
-0.863912
-0.86787
-0.863113
-0.844028
-0.826652
-0.853008
-0.86282
-0.865158
-0.859919
-0.846569
-0.825984
-0.852284
-0.863238
-0.865191
-0.862684
-0.843488
-0.824938
-0.851376
-0.864797
-0.869194
-0.881684
-0.83541
-0.82244
-0.849715
-0.867007
-0.876168
-0.922747
-0.824545
-0.81874
-0.847842
-0.869057
-0.883681
-0.967579
-0.819364
-0.816282
-0.847744
-0.871709
-0.890737
-0.994059
-0.843741
-0.81062
-0.795388
-0.772594
-0.735856
-0.682612
-0.614153
-0.53543
-0.453058
-0.372861
-0.298803
-0.233111
-0.176749
-0.129661
-0.0912378
-0.0605714
-0.0366696
-0.0185483
-0.0052821
0.003963
0.00997893
0.0139353
0.0174903
0.0168002
-0.86678
-0.843725
-0.828663
-0.808656
-0.774076
-0.720131
-0.647275
-0.561194
-0.470266
-0.38184
-0.300782
-0.229736
-0.169605
-0.120104
-0.0803027
-0.0490376
-0.0251071
-0.00739509
0.00506129
0.0130485
0.0172288
0.0183901
0.0172418
0.0115444
-0.879988
-0.870521
-0.862189
-0.8487
-0.819213
-0.766569
-0.689862
-0.595557
-0.494288
-0.395669
-0.306033
-0.228672
-0.164368
-0.112378
-0.0712934
-0.0395495
-0.0156728
0.0016129
0.0133299
0.020268
0.023013
0.0221162
0.0178008
0.00973991
-0.892856
-0.894219
-0.895427
-0.891392
-0.869894
-0.820786
-0.740998
-0.63743
-0.523492
-0.412776
-0.313284
-0.228844
-0.160006
-0.105538
-0.0634703
-0.0316962
-0.00831352
0.00824855
0.0191575
0.0252464
0.0270624
0.0253126
0.02001
0.012471
-0.905353
-0.916019
-0.927576
-0.934732
-0.923563
-0.880255
-0.798816
-0.686184
-0.558703
-0.436656
-0.327824
-0.23649
-0.163065
-0.105909
-0.0625559
-0.0304399
-0.00720368
0.00910858
0.0198453
0.0258754
0.0276474
0.0259191
0.0196727
0.0142994
-0.916576
-0.935464
-0.95699
-0.975664
-0.975896
-0.940032
-0.858385
-0.737543
-0.600926
-0.469754
-0.354152
-0.258256
-0.182117
-0.123416
-0.079044
-0.0462001
-0.0222974
-0.00509391
0.00676392
0.0141907
0.0179449
0.019894
0.0186015
0.0165284
-0.925973
-0.951483
-0.981376
-1.01009
-1.0205
-0.990945
-0.908752
-0.782286
-0.639058
-0.502638
-0.384067
-0.287291
-0.211525
-0.153091
-0.1082
-0.0735883
-0.0471163
-0.0274211
-0.0131102
-0.00294095
0.00383027
0.00861971
0.0114452
0.0152291
-0.932821
-0.962876
-0.998495
-1.03431
-1.05085
-1.02224
-0.937784
-0.807229
-0.661098
-0.524282
-0.40683
-0.311911
-0.238148
-0.180613
-0.135603
-0.100298
-0.0724994
-0.0506036
-0.0333723
-0.0196937
-0.00896534
-0.000489412
0.00633595
0.0147283
-0.936499
-0.968732
-1.00723
-1.04569
-1.0617
-1.02977
-0.939911
-0.807194
-0.6629
-0.530402
-0.417438
-0.326731
-0.255663
-0.199309
-0.154327
-0.11831
-0.0893819
-0.0660221
-0.0469985
-0.031297
-0.0181588
-0.0067305
0.00464841
0.0151261
-0.936635
-0.968684
-1.00703
-1.04333
-1.05282
-1.01323
-0.91677
-0.784164
-0.645792
-0.520655
-0.41619
-0.331729
-0.263833
-0.20947
-0.165393
-0.129361
-0.099741
-0.0752193
-0.0547034
-0.0372673
-0.0219767
-0.00827503
0.00564301
0.0168623
-0.933157
-0.962825
-0.998468
-1.02712
-1.0261
-0.975184
-0.873096
-0.743136
-0.613241
-0.498883
-0.40414
-0.325998
-0.262236
-0.210398
-0.167876
-0.13267
-0.103299
-0.0785476
-0.057408
-0.0390792
-0.0228676
-0.00759993
0.00874978
0.0207664
-0.926238
-0.951782
-0.982422
-0.99815
-0.983913
-0.92052
-0.814624
-0.690185
-0.570706
-0.467984
-0.382168
-0.310684
-0.25155
-0.202638
-0.161945
-0.127854
-0.0990953
-0.0746064
-0.053486
-0.0350325
-0.018618
-0.00270613
0.0154382
0.0270484
-0.916226
-0.936612
-0.958697
-0.959376
-0.929138
-0.854307
-0.746572
-0.629896
-0.522209
-0.429881
-0.352369
-0.287461
-0.233086
-0.187477
-0.149037
-0.116424
-0.0885498
-0.0645249
-0.0436272
-0.0253279
-0.00904701
0.00712031
0.0262981
0.0359301
-0.903799
-0.91871
-0.926465
-0.912986
-0.865531
-0.780303
-0.673289
-0.565699
-0.469071
-0.386485
-0.316743
-0.257819
-0.207954
-0.165675
-0.129692
-0.0988911
-0.0723437
-0.0492821
-0.0291043
-0.0113906
0.00441009
0.0205822
0.0404746
0.0471797
-0.890062
-0.899254
-0.887028
-0.859473
-0.7953
-0.701495
-0.597717
-0.499475
-0.413081
-0.339231
-0.276464
-0.22303
-0.17742
-0.138386
-0.10487
-0.0759792
-0.0509602
-0.0291819
-0.0101446
0.00650909
0.0213878
0.0372145
0.057476
0.0605883
-0.875905
-0.877166
-0.844326
-0.798701
-0.71872
-0.620025
-0.521421
-0.43223
-0.354977
-0.288909
-0.232455
-0.18409
-0.142526
-0.106697
-0.075715
-0.0488498
-0.0254964
-0.00514754
0.0125963
0.0280173
0.0417816
0.0570548
0.0774119
0.0763366
-0.861826
-0.843914
-0.800579
-0.730763
-0.636606
-0.536994
-0.444848
-0.364294
-0.295201
-0.236114
-0.185454
-0.141848
-0.104169
-0.0715015
-0.0431014
-0.0183716
0.0031762
0.0219572
0.0382947
0.0523935
0.06495
0.0795535
0.0998836
0.0943976
-0.84951
-0.797118
-0.747585
-0.654942
-0.550325
-0.452897
-0.368047
-0.295632
-0.234034
-0.181427
-0.136233
-0.0971875
-0.0632923
-0.0337563
-0.00795975
0.0145806
0.0342555
0.0514034
0.066279
0.0790021
0.0902781
0.104108
0.124384
0.114683
-0.839157
-0.749606
-0.678622
-0.569148
-0.460326
-0.367746
-0.290715
-0.226236
-0.171783
-0.125358
-0.0854298
-0.050833
-0.020677
0.00572178
0.0288834
0.0492004
0.0669851
0.0825081
0.0959494
0.107325
0.117333
0.130368
0.150607
0.13716
-0.80751
-0.709168
-0.596903
-0.473505
-0.366552
-0.281312
-0.212605
-0.156062
-0.108667
-0.0683452
-0.0336282
-0.00345589
0.0229554
0.0461909
0.0666848
0.0847577
0.10066
0.114602
0.126688
0.136811
0.145628
0.157878
0.178109
0.161776
-0.746916
-0.656489
-0.502008
-0.368603
-0.268479
-0.192901
-0.133481
-0.0852524
-0.0450621
-0.0108928
0.0185928
0.0443204
0.0669547
0.0869847
0.10477
0.120572
0.134596
0.147005
0.15783
0.166848
0.174619
0.186111
0.206343
0.188574
-0.669167
-0.552103
-0.382653
-0.253444
-0.165784
-0.102354
-0.053528
-0.014193
0.0185551
0.0464749
0.0706846
0.0919338
0.110752
0.127527
0.142547
0.156028
0.168139
0.179014
0.188644
0.196733
0.20371
0.214483
0.234582
0.218045
-0.592597
-0.384058
-0.230161
-0.127612
-0.0592759
-0.0105189
0.0265715
0.0564916
0.0815985
0.10321
0.122133
0.138898
0.153878
0.167352
0.179533
0.190588
0.200659
0.209868
0.218233
0.225504
0.231907
0.241545
0.260678
0.253142
-0.441234
-0.162663
-0.0529508
0.00603793
0.0490484
0.0809106
0.105548
0.125864
0.143342
0.158729
0.172456
0.184807
0.195986
0.206148
0.215416
0.223888
0.231652
0.238807
0.24542
0.251337
0.256264
0.262
0.276106
0.299654
)
;

boundaryField
{
    rotor
    {
        type            zeroGradient;
    }
    freestream
    {
        type            freestreamPressure;
        freestreamValue uniform 0;
        supersonic      false;
        value           nonuniform List<scalar> 
96
(
0.169704
0.186764
0.209139
0.234755
0.262677
0.292121
0.322556
0.353501
0.384508
0.415148
0.445015
0.473731
0.500953
0.526379
0.549746
0.570838
0.589414
0.605025
0.618054
0.628605
0.636299
0.641128
0.643083
0.642161
0.638424
0.631926
0.622755
0.610974
0.596888
0.580817
0.562201
0.541369
0.518642
0.494226
0.468342
0.441232
0.41316
0.384408
0.355265
0.326034
0.297038
0.26865
0.241345
0.215798
0.193028
0.174679
0.152218
0.12462
0.101296
0.0819701
0.0654526
0.0513053
0.0393258
0.0293438
0.0211815
0.0146626
0.0096175
0.00586734
0.0032103
0.0014532
0.00042611
-6.20963e-05
-0.000196333
-0.00012011
4.52403e-05
0.000200233
0.000280534
0.000270951
0.000221665
0.000208188
0.00016211
4.19389e-05
1.86555e-05
0.00013242
0.000226901
0.000413727
0.000596313
0.000866279
0.001033
0.00127047
0.00161091
0.00213803
0.00305102
0.00453238
0.00679122
0.00997496
0.0142431
0.0198534
0.0270315
0.0359978
0.0469922
0.0602447
0.0760102
0.0947241
0.117999
0.14916
)
;
    }
    frontAndBack
    {
        type            empty;
    }
}


// ************************************************************************* //
