/*--------------------------------*- C++ -*----------------------------------*\
  =========                 |
  \\      /  F ield         | OpenFOAM: The Open Source CFD Toolbox
   \\    /   O peration     | Website:  https://openfoam.org
    \\  /    A nd           | Version:  11
     \\/     M anipulation  |
\*---------------------------------------------------------------------------*/
FoamFile
{
    format      ascii;
    class       surfaceScalarField;
    location    "1.76";
    object      phi;
}
// * * * * * * * * * * * * * * * * * * * * * * * * * * * * * * * * * * * * * //

dimensions      [0 3 -1 0 0 0 0];

internalField   nonuniform List<scalar> 
5640
(
-2.08843e-07
2.08843e-07
1.27535e-07
-3.36378e-07
1.43039e-06
-1.30285e-06
3.47931e-06
-2.04893e-06
8.0791e-06
-4.59979e-06
-8.34435e-06
1.64234e-05
-8.43852e-08
2.93229e-07
4.93397e-07
-9.14161e-07
1.89457e-06
-2.70402e-06
4.29472e-06
-4.44908e-06
7.7581e-06
-8.06316e-06
-1.32718e-05
1.26855e-05
2.1531e-08
2.71698e-07
7.01495e-07
-1.59412e-06
2.10738e-06
-4.1099e-06
4.40497e-06
-6.74668e-06
7.33042e-06
-1.09886e-05
-1.64702e-05
1.05288e-05
9.59341e-08
1.75764e-07
8.19596e-07
-2.31779e-06
2.15797e-06
-5.44828e-06
4.19801e-06
-8.78671e-06
6.55238e-06
-1.3343e-05
-1.85875e-05
8.66972e-06
1.5683e-07
1.89334e-08
8.67177e-07
-3.02813e-06
2.08121e-06
-6.66231e-06
3.80055e-06
-1.05061e-05
5.58501e-06
-1.51274e-05
-1.99381e-05
6.93557e-06
1.99601e-07
-1.80667e-07
8.48254e-07
-3.67679e-06
1.90036e-06
-7.71442e-06
3.28201e-06
-1.18877e-05
4.55405e-06
-1.63995e-05
-2.07137e-05
5.32969e-06
2.12424e-07
-3.93091e-07
7.71853e-07
-4.23621e-06
1.63815e-06
-8.58072e-06
2.6895e-06
-1.29391e-05
3.52291e-06
-1.72329e-05
-2.10515e-05
3.86071e-06
1.97707e-07
-5.90798e-07
6.4997e-07
-4.68848e-06
1.31779e-06
-9.24854e-06
2.05783e-06
-1.36791e-05
2.52009e-06
-1.76952e-05
-2.10481e-05
2.51666e-06
1.61393e-07
-7.52191e-07
4.95225e-07
-5.02231e-06
9.60942e-07
-9.71425e-06
1.41319e-06
-1.41314e-05
1.56193e-06
-1.78439e-05
-2.07714e-05
1.28522e-06
1.10108e-07
-8.62298e-07
3.19541e-07
-5.23174e-06
5.86053e-07
-9.98077e-06
7.758e-07
-1.43211e-05
6.57497e-07
-1.77256e-05
-2.02674e-05
1.53552e-07
5.04997e-08
-9.12798e-07
1.33814e-07
-5.31506e-06
2.07752e-07
-1.00547e-05
1.59521e-07
-1.42729e-05
-1.87346e-07
-1.73787e-05
-1.95769e-05
-8.77811e-07
-1.13323e-08
-9.01466e-07
-5.22708e-08
-5.27412e-06
-1.62868e-07
-9.94411e-06
-4.24963e-07
-1.40108e-05
-9.69138e-07
-1.68345e-05
-1.87238e-05
-1.82231e-06
-7.19174e-08
-8.29548e-07
-2.30846e-07
-5.11519e-06
-5.16059e-07
-9.65889e-06
-9.71651e-07
-1.35552e-05
-1.68647e-06
-1.61197e-05
-1.77295e-05
-2.6808e-06
-1.23911e-07
-7.05638e-07
-3.94269e-07
-4.84483e-06
-8.42993e-07
-9.21017e-06
-1.47457e-06
-1.29236e-05
-2.33769e-06
-1.52566e-05
-1.66115e-05
-3.45566e-06
-1.64176e-07
-5.41462e-07
-5.36025e-07
-4.47298e-06
-1.13637e-06
-8.60982e-06
-1.92873e-06
-1.21313e-05
-2.92168e-06
-1.42636e-05
-1.53846e-05
-4.14857e-06
-1.89394e-07
-3.52068e-07
-6.50017e-07
-4.01236e-06
-1.38899e-06
-7.87085e-06
-2.32941e-06
-1.11908e-05
-3.43756e-06
-1.31555e-05
-1.40614e-05
-4.76069e-06
-1.96568e-07
-1.55501e-07
-7.30426e-07
-3.4785e-06
-1.59348e-06
-7.00779e-06
-2.6715e-06
-1.01128e-05
-3.88419e-06
-1.19428e-05
-1.26529e-05
-5.29277e-06
-1.83283e-07
2.77823e-08
-7.71483e-07
-2.8903e-06
-1.7421e-06
-6.03717e-06
-2.94871e-06
-8.9062e-06
-4.26047e-06
-1.0631e-05
-1.11677e-05
-5.74564e-06
-1.46055e-07
1.73838e-07
-7.67906e-07
-2.26845e-06
-1.82639e-06
-4.97869e-06
-3.15245e-06
-7.58015e-06
-4.56461e-06
-9.21889e-06
-9.61224e-06
-6.12007e-06
-9.62618e-08
2.70099e-07
-7.21192e-07
-1.64352e-06
-1.83663e-06
-3.86325e-06
-3.27005e-06
-6.14672e-06
-4.7926e-06
-7.69634e-06
-7.98779e-06
-6.41705e-06
-3.75009e-08
3.076e-07
-6.27104e-07
-1.05392e-06
-1.75906e-06
-2.73129e-06
-3.28196e-06
-4.62383e-06
-4.93501e-06
-6.04329e-06
-6.28457e-06
-6.63823e-06
3.00255e-08
2.77575e-07
-4.81188e-07
-5.42703e-07
-1.57235e-06
-1.64013e-06
-3.15544e-06
-3.04074e-06
-4.96899e-06
-4.22974e-06
-4.46938e-06
-6.78418e-06
1.10368e-07
1.67206e-07
-2.73449e-07
-1.58886e-07
-1.23784e-06
-6.75731e-07
-2.81961e-06
-1.45898e-06
-4.83839e-06
-2.21096e-06
-2.46296e-06
-6.8448e-06
1.67206e-07
8.32063e-09
-6.67411e-07
-2.12639e-06
-4.33735e-06
-6.80031e-06
1.43002e-05
-3.57206e-05
3.78439e-05
1.28265e-05
-4.4532e-05
4.60057e-05
1.13733e-05
-4.80681e-05
4.95213e-05
1.00719e-05
-4.98355e-05
5.11368e-05
8.91544e-06
-5.08046e-05
5.1961e-05
7.87556e-06
-5.14608e-05
5.25007e-05
6.92935e-06
-5.19755e-05
5.29217e-05
6.05802e-06
-5.24099e-05
5.32812e-05
5.2475e-06
-5.27918e-05
5.36023e-05
4.48786e-06
-5.31372e-05
5.38968e-05
3.77196e-06
-5.34556e-05
5.41715e-05
3.09438e-06
-5.37526e-05
5.44302e-05
2.45075e-06
-5.40306e-05
5.46743e-05
1.83744e-06
-5.42898e-05
5.49031e-05
1.25147e-06
-5.45284e-05
5.51144e-05
6.9058e-07
-5.47435e-05
5.53044e-05
1.53443e-07
-5.4931e-05
5.54682e-05
-3.60163e-07
-5.50862e-05
5.55998e-05
-8.49259e-07
-5.52032e-05
5.56923e-05
-1.31108e-06
-5.52747e-05
5.57365e-05
-1.73784e-06
-5.52934e-05
5.57202e-05
-2.11184e-06
-5.52516e-05
5.56256e-05
-2.42711e-06
-5.51164e-05
5.54317e-05
-5.47473e-05
5.51184e-05
1.20385e-05
-3.50736e-05
1.09175e-05
-4.3411e-05
9.57123e-06
-4.67219e-05
8.21127e-06
-4.84755e-05
6.9607e-06
-4.9554e-05
5.81781e-06
-5.03179e-05
4.7609e-06
-5.09186e-05
3.77226e-06
-5.14212e-05
2.83951e-06
-5.1859e-05
1.95412e-06
-5.22518e-05
1.10996e-06
-5.26115e-05
3.02337e-07
-5.2945e-05
-4.72514e-07
-5.32558e-05
-1.21771e-06
-5.35446e-05
-1.9358e-06
-5.38103e-05
-2.62875e-06
-5.40505e-05
-3.29793e-06
-5.42619e-05
-3.9441e-06
-5.44401e-05
-4.56743e-06
-5.45798e-05
-5.16731e-06
-5.46748e-05
-5.74342e-06
-5.47173e-05
-6.30232e-06
-5.46927e-05
-6.85963e-06
-5.45591e-05
-5.42908e-05
1.04262e-05
-3.4971e-05
9.14266e-06
-4.21275e-05
7.70356e-06
-4.52827e-05
6.29497e-06
-4.70669e-05
4.97601e-06
-4.8235e-05
3.74422e-06
-4.90861e-05
2.58388e-06
-4.97583e-05
1.48193e-06
-5.03193e-05
4.29164e-07
-5.08063e-05
-5.81033e-07
-5.12416e-05
-1.55363e-06
-5.16389e-05
-2.4926e-06
-5.2006e-05
-3.4013e-06
-5.23471e-05
-4.28258e-06
-5.26633e-05
-5.13894e-06
-5.29539e-05
-5.97249e-06
-5.3217e-05
-6.78502e-06
-5.34493e-05
-7.57796e-06
-5.36471e-05
-8.35232e-06
-5.38055e-05
-9.10873e-06
-5.39184e-05
-9.84805e-06
-5.3978e-05
-1.05708e-05
-5.397e-05
-1.12644e-05
-5.38655e-05
-5.36941e-05
8.51053e-06
-3.48118e-05
7.24645e-06
-4.08634e-05
5.80352e-06
-4.38398e-05
4.36882e-06
-4.56322e-05
2.99091e-06
-4.68571e-05
1.67502e-06
-4.77702e-05
4.1438e-07
-4.84977e-05
-7.9844e-07
-4.91064e-05
-1.96937e-06
-4.96353e-05
-3.10307e-06
-5.01079e-05
-4.2034e-06
-5.05385e-05
-5.27364e-06
-5.09358e-05
-6.31669e-06
-5.1304e-05
-7.33514e-06
-5.16448e-05
-8.33131e-06
-5.19578e-05
-9.30718e-06
-5.22411e-05
-1.02644e-05
-5.24922e-05
-1.12039e-05
-5.27076e-05
-1.21261e-05
-5.28832e-05
-1.30304e-05
-5.30141e-05
-1.3915e-05
-5.30934e-05
-1.47752e-05
-5.31098e-05
-1.5596e-05
-5.30447e-05
-5.29598e-05
6.61828e-06
-3.44945e-05
5.37642e-06
-3.96215e-05
3.93337e-06
-4.23968e-05
2.46666e-06
-4.41655e-05
1.02693e-06
-4.54174e-05
-3.72942e-07
-4.63704e-05
-1.73251e-06
-4.71381e-05
-3.05429e-06
-4.77847e-05
-4.34136e-06
-4.83483e-05
-5.59667e-06
-4.88526e-05
-6.82296e-06
-4.93122e-05
-8.02278e-06
-4.9736e-05
-9.19853e-06
-5.01283e-05
-1.03524e-05
-5.0491e-05
-1.14862e-05
-5.08239e-05
-1.26017e-05
-5.11257e-05
-1.36997e-05
-5.13942e-05
-1.47805e-05
-5.16268e-05
-1.58433e-05
-5.18204e-05
-1.6886e-05
-5.19715e-05
-1.79046e-05
-5.20748e-05
-1.88922e-05
-5.21222e-05
-1.98348e-05
-5.21021e-05
-5.20981e-05
4.83306e-06
-3.39979e-05
3.57945e-06
-3.83679e-05
2.11847e-06
-4.09358e-05
6.08182e-07
-4.26552e-05
-8.99007e-07
-4.39102e-05
-2.38441e-06
-4.4885e-05
-3.84213e-06
-4.56804e-05
-5.27114e-06
-4.63557e-05
-6.67212e-06
-4.69473e-05
-8.04649e-06
-4.74782e-05
-9.39597e-06
-4.79628e-05
-1.07224e-05
-4.84096e-05
-1.20275e-05
-4.88232e-05
-1.33129e-05
-4.92055e-05
-1.45801e-05
-4.95567e-05
-1.58299e-05
-4.98759e-05
-1.70626e-05
-5.01614e-05
-1.82776e-05
-5.04118e-05
-1.94729e-05
-5.06251e-05
-2.06451e-05
-5.07992e-05
-2.17891e-05
-5.09308e-05
-2.28972e-05
-5.10141e-05
-2.39566e-05
-5.10427e-05
-5.11145e-05
3.17432e-06
-3.33115e-05
1.87596e-06
-3.70696e-05
3.7551e-07
-3.94353e-05
-1.19134e-06
-4.10884e-05
-2.77227e-06
-4.23293e-05
-4.34516e-06
-4.33121e-05
-5.90068e-06
-4.41248e-05
-7.43515e-06
-4.48212e-05
-8.94746e-06
-4.5435e-05
-1.04378e-05
-4.59879e-05
-1.19069e-05
-4.64937e-05
-1.33558e-05
-4.69606e-05
-1.47858e-05
-4.73932e-05
-1.61978e-05
-4.77935e-05
-1.75926e-05
-4.81619e-05
-1.89705e-05
-4.8498e-05
-2.0331e-05
-4.88009e-05
-2.16726e-05
-4.90702e-05
-2.29925e-05
-4.93052e-05
-2.42864e-05
-4.95053e-05
-2.55486e-05
-4.96687e-05
-2.67713e-05
-4.97914e-05
-2.79431e-05
-4.9871e-05
-5.0013e-05
1.64349e-06
-3.24383e-05
2.74062e-07
-3.57001e-05
-1.28565e-06
-3.78756e-05
-2.92047e-06
-3.94535e-05
-4.58073e-06
-4.0669e-05
-6.24287e-06
-4.16499e-05
-7.89557e-06
-4.24721e-05
-9.53344e-06
-4.31833e-05
-1.11541e-05
-4.38143e-05
-1.27566e-05
-4.43853e-05
-1.4341e-05
-4.49092e-05
-1.59078e-05
-4.53939e-05
-1.74573e-05
-4.58437e-05
-1.899e-05
-4.62608e-05
-2.05062e-05
-4.66457e-05
-2.20054e-05
-4.69987e-05
-2.34865e-05
-4.73199e-05
-2.49472e-05
-4.76095e-05
-2.6384e-05
-4.78684e-05
-2.77923e-05
-4.8097e-05
-2.9166e-05
-4.82949e-05
-3.04979e-05
-4.84594e-05
-3.17781e-05
-4.85908e-05
-4.87977e-05
2.32937e-07
-3.1386e-05
-1.22558e-06
-3.42416e-05
-2.85906e-06
-3.62421e-05
-4.57073e-06
-3.77419e-05
-6.31448e-06
-3.89253e-05
-8.06679e-06
-3.98976e-05
-9.81549e-06
-4.07234e-05
-1.15542e-05
-4.14446e-05
-1.32796e-05
-4.20889e-05
-1.49902e-05
-4.26748e-05
-1.66851e-05
-4.32143e-05
-1.83642e-05
-4.37148e-05
-2.00273e-05
-4.41806e-05
-2.16745e-05
-4.46136e-05
-2.33052e-05
-4.5015e-05
-2.49186e-05
-4.53854e-05
-2.65128e-05
-4.57257e-05
-2.80851e-05
-4.60372e-05
-2.96315e-05
-4.6322e-05
-3.11471e-05
-4.65814e-05
-3.26262e-05
-4.68158e-05
-3.40622e-05
-4.70234e-05
-3.54468e-05
-4.72062e-05
-4.74722e-05
-1.06577e-06
-3.01667e-05
-2.62391e-06
-3.26835e-05
-4.34126e-06
-3.45248e-05
-6.1357e-06
-3.59474e-05
-7.96531e-06
-3.70957e-05
-9.80761e-06
-3.80553e-05
-1.16503e-05
-3.88807e-05
-1.34867e-05
-3.96082e-05
-1.53128e-05
-4.02628e-05
-1.71266e-05
-4.08611e-05
-1.89266e-05
-4.14143e-05
-2.07122e-05
-4.19293e-05
-2.24827e-05
-4.241e-05
-2.42375e-05
-4.28588e-05
-2.59757e-05
-4.32768e-05
-2.76959e-05
-4.36652e-05
-2.93957e-05
-4.40258e-05
-3.1072e-05
-4.4361e-05
-3.27206e-05
-4.46733e-05
-3.43368e-05
-4.49653e-05
-3.59152e-05
-4.52374e-05
-3.74502e-05
-4.54884e-05
-3.89351e-05
-4.57213e-05
-4.60409e-05
-2.25918e-06
-2.87853e-05
-3.92304e-06
-3.10196e-05
-5.73003e-06
-3.27178e-05
-7.61032e-06
-3.40671e-05
-9.52635e-06
-3.51796e-05
-1.14572e-05
-3.61244e-05
-1.33912e-05
-3.69468e-05
-1.53213e-05
-3.76781e-05
-1.72434e-05
-3.83406e-05
-1.9155e-05
-3.89495e-05
-2.10543e-05
-3.9515e-05
-2.294e-05
-4.00435e-05
-2.48111e-05
-4.05389e-05
-2.66666e-05
-4.10033e-05
-2.85049e-05
-4.14384e-05
-3.03244e-05
-4.18458e-05
-3.21222e-05
-4.2228e-05
-3.3895e-05
-4.25882e-05
-3.56386e-05
-4.29297e-05
-3.73487e-05
-4.32552e-05
-3.90205e-05
-4.35655e-05
-4.06495e-05
-4.38594e-05
-4.22302e-05
-4.41406e-05
-4.45086e-05
-3.35333e-06
-2.72543e-05
-5.12476e-06
-2.92482e-05
-7.02372e-06
-3.08188e-05
-8.99051e-06
-3.21003e-05
-1.09918e-05
-3.31783e-05
-1.30087e-05
-3.41076e-05
-1.50301e-05
-3.49254e-05
-1.70493e-05
-3.56589e-05
-1.90621e-05
-3.63278e-05
-2.10657e-05
-3.6946e-05
-2.30578e-05
-3.75229e-05
-2.5037e-05
-3.80644e-05
-2.70017e-05
-3.85742e-05
-2.89504e-05
-3.90546e-05
-3.08814e-05
-3.95074e-05
-3.27925e-05
-3.99348e-05
-3.46807e-05
-4.03398e-05
-3.65425e-05
-4.07264e-05
-3.8374e-05
-4.10981e-05
-4.01714e-05
-4.14578e-05
-4.19308e-05
-4.18061e-05
-4.36485e-05
-4.21418e-05
-4.53201e-05
-4.2469e-05
-4.28807e-05
-4.3524e-06
-2.55827e-05
-6.2305e-06
-2.73701e-05
-8.22111e-06
-2.88282e-05
-1.0273e-05
-3.00485e-05
-1.23569e-05
-3.10944e-05
-1.44559e-05
-3.20085e-05
-1.656e-05
-3.28212e-05
-1.8663e-05
-3.35559e-05
-2.07605e-05
-3.42303e-05
-2.28496e-05
-3.48569e-05
-2.49279e-05
-3.54446e-05
-2.69934e-05
-3.59989e-05
-2.90443e-05
-3.65233e-05
-3.10788e-05
-3.70201e-05
-3.30948e-05
-3.74914e-05
-3.50898e-05
-3.79398e-05
-3.70607e-05
-3.83689e-05
-3.90041e-05
-3.87829e-05
-4.09166e-05
-3.91856e-05
-4.27949e-05
-3.95796e-05
-4.46358e-05
-3.99651e-05
-4.64364e-05
-4.03411e-05
-4.81935e-05
-4.0712e-05
-4.1163e-05
-5.25952e-06
-2.37789e-05
-7.24147e-06
-2.53881e-05
-9.32128e-06
-2.67484e-05
-1.1455e-05
-2.79148e-05
-1.36173e-05
-2.89321e-05
-1.57935e-05
-2.98323e-05
-1.79748e-05
-3.06399e-05
-2.01554e-05
-3.13754e-05
-2.23311e-05
-3.20545e-05
-2.44989e-05
-3.26892e-05
-2.66561e-05
-3.32874e-05
-2.88005e-05
-3.38545e-05
-3.09301e-05
-3.43937e-05
-3.30426e-05
-3.49075e-05
-3.51358e-05
-3.53982e-05
-3.7207e-05
-3.58687e-05
-3.9253e-05
-3.63229e-05
-4.12708e-05
-3.67651e-05
-4.32572e-05
-3.71991e-05
-4.52098e-05
-3.76271e-05
-4.71261e-05
-3.80489e-05
-4.90037e-05
-3.84635e-05
-5.08402e-05
-3.88755e-05
-3.93621e-05
-6.07707e-06
-2.18504e-05
-8.15873e-06
-2.33065e-05
-1.03236e-05
-2.45836e-05
-1.25343e-05
-2.57041e-05
-1.47696e-05
-2.66968e-05
-1.7017e-05
-2.75848e-05
-1.92691e-05
-2.83879e-05
-2.15205e-05
-2.9124e-05
-2.37673e-05
-2.98077e-05
-2.60063e-05
-3.04501e-05
-2.82349e-05
-3.10588e-05
-3.04506e-05
-3.16388e-05
-3.2651e-05
-3.21934e-05
-3.48337e-05
-3.27248e-05
-3.69962e-05
-3.32356e-05
-3.91358e-05
-3.37291e-05
-4.12494e-05
-3.42093e-05
-4.33342e-05
-3.46803e-05
-4.53878e-05
-3.51456e-05
-4.7408e-05
-3.56068e-05
-4.93931e-05
-3.60638e-05
-5.13412e-05
-3.65154e-05
-5.32506e-05
-3.6966e-05
-3.74848e-05
-6.80713e-06
-1.98039e-05
-8.98342e-06
-2.11302e-05
-1.12278e-05
-2.23392e-05
-1.35093e-05
-2.34227e-05
-1.58107e-05
-2.43953e-05
-1.81224e-05
-2.52732e-05
-2.04379e-05
-2.60724e-05
-2.27527e-05
-2.68092e-05
-2.5063e-05
-2.74974e-05
-2.73656e-05
-2.81475e-05
-2.96577e-05
-2.87667e-05
-3.19366e-05
-2.93599e-05
-3.41998e-05
-2.99302e-05
-3.64447e-05
-3.04799e-05
-3.86686e-05
-3.10117e-05
-4.08688e-05
-3.15289e-05
-4.30426e-05
-3.20355e-05
-4.51874e-05
-3.25355e-05
-4.73012e-05
-3.30318e-05
-4.93823e-05
-3.35257e-05
-5.14293e-05
-3.40168e-05
-5.34407e-05
-3.4504e-05
-5.54159e-05
-3.49909e-05
-3.5538e-05
-7.4518e-06
-1.76449e-05
-9.71697e-06
-1.8865e-05
-1.20341e-05
-2.00221e-05
-1.43785e-05
-2.10782e-05
-1.67382e-05
-2.20356e-05
-1.91061e-05
-2.29054e-05
-2.14771e-05
-2.37013e-05
-2.38473e-05
-2.4439e-05
-2.62131e-05
-2.51316e-05
-2.85712e-05
-2.57894e-05
-3.09186e-05
-2.64193e-05
-3.32526e-05
-2.70259e-05
-3.55705e-05
-2.76123e-05
-3.78694e-05
-2.8181e-05
-4.01467e-05
-2.87344e-05
-4.23998e-05
-2.92759e-05
-4.46261e-05
-2.98092e-05
-4.68237e-05
-3.03379e-05
-4.89907e-05
-3.08647e-05
-5.1126e-05
-3.13905e-05
-5.32279e-05
-3.1915e-05
-5.52947e-05
-3.24371e-05
-5.73259e-05
-3.29597e-05
-3.35267e-05
-8.01378e-06
-1.53767e-05
-1.03613e-05
-1.65175e-05
-1.27428e-05
-1.76406e-05
-1.51411e-05
-1.86799e-05
-1.75498e-05
-1.96269e-05
-1.9965e-05
-2.04902e-05
-2.23829e-05
-2.12834e-05
-2.48001e-05
-2.20218e-05
-2.7213e-05
-2.27188e-05
-2.96182e-05
-2.33842e-05
-3.20127e-05
-2.40248e-05
-3.43935e-05
-2.46451e-05
-3.67576e-05
-2.52482e-05
-3.91023e-05
-2.58363e-05
-4.14249e-05
-2.64118e-05
-4.37229e-05
-2.69779e-05
-4.59941e-05
-2.7538e-05
-4.82369e-05
-2.80951e-05
-5.045e-05
-2.86516e-05
-5.26323e-05
-2.92082e-05
-5.47826e-05
-2.97647e-05
-5.68991e-05
-3.03206e-05
-5.89794e-05
-3.08793e-05
-3.14629e-05
-8.49708e-06
-1.29997e-05
-1.09192e-05
-1.40953e-05
-1.33547e-05
-1.52052e-05
-1.5796e-05
-1.62386e-05
-1.82435e-05
-1.71794e-05
-2.06964e-05
-1.80374e-05
-2.31521e-05
-1.88276e-05
-2.56074e-05
-1.95665e-05
-2.80587e-05
-2.02675e-05
-3.05026e-05
-2.09403e-05
-3.29356e-05
-2.15917e-05
-3.53547e-05
-2.2226e-05
-3.77569e-05
-2.2846e-05
-4.01392e-05
-2.3454e-05
-4.24989e-05
-2.40521e-05
-4.48337e-05
-2.46431e-05
-4.71419e-05
-2.52298e-05
-4.9422e-05
-2.58149e-05
-5.16733e-05
-2.64003e-05
-5.3895e-05
-2.69865e-05
-5.60863e-05
-2.75734e-05
-5.8246e-05
-2.81609e-05
-6.03726e-05
-2.87528e-05
-2.93587e-05
-8.90766e-06
-1.05091e-05
-1.13945e-05
-1.16085e-05
-1.38705e-05
-1.27291e-05
-1.63423e-05
-1.37668e-05
-1.88171e-05
-1.47045e-05
-2.12974e-05
-1.5557e-05
-2.37815e-05
-1.63436e-05
-2.6266e-05
-1.70821e-05
-2.87469e-05
-1.77865e-05
-3.12208e-05
-1.84665e-05
-3.36839e-05
-1.91286e-05
-3.6133e-05
-1.97769e-05
-3.85649e-05
-2.04141e-05
-4.09767e-05
-2.10423e-05
-4.33656e-05
-2.16632e-05
-4.57295e-05
-2.22792e-05
-4.80669e-05
-2.28924e-05
-5.03767e-05
-2.35051e-05
-5.26584e-05
-2.41185e-05
-5.49116e-05
-2.47333e-05
-5.71357e-05
-2.53493e-05
-5.933e-05
-2.59666e-05
-6.14947e-05
-2.65881e-05
-2.72199e-05
-9.25403e-06
-7.89332e-06
-1.17916e-05
-9.07091e-06
-1.42911e-05
-1.02297e-05
-1.67784e-05
-1.12795e-05
-1.92683e-05
-1.22146e-05
-2.17655e-05
-1.30598e-05
-2.42683e-05
-1.38408e-05
-2.67728e-05
-1.45776e-05
-2.92747e-05
-1.52846e-05
-3.17699e-05
-1.59713e-05
-3.42547e-05
-1.66438e-05
-3.67255e-05
-1.7306e-05
-3.91791e-05
-1.79605e-05
-4.16124e-05
-1.86089e-05
-4.40228e-05
-1.92528e-05
-4.64082e-05
-1.98938e-05
-4.87673e-05
-2.05334e-05
-5.10993e-05
-2.11731e-05
-5.34039e-05
-2.1814e-05
-5.56808e-05
-2.24564e-05
-5.79295e-05
-2.31005e-05
-6.01496e-05
-2.37464e-05
-6.23415e-05
-2.43962e-05
-2.5054e-05
-9.54746e-06
-5.13004e-06
-1.21163e-05
-6.50205e-06
-1.46165e-05
-7.72954e-06
-1.7102e-05
-8.79396e-06
-1.95942e-05
-9.72239e-06
-2.20978e-05
-1.05562e-05
-2.46099e-05
-1.13287e-05
-2.71254e-05
-1.2062e-05
-2.96395e-05
-1.27706e-05
-3.21475e-05
-1.34633e-05
-3.46456e-05
-1.41458e-05
-3.71299e-05
-1.48217e-05
-3.95972e-05
-1.54933e-05
-4.20442e-05
-1.61619e-05
-4.44684e-05
-1.68286e-05
-4.68677e-05
-1.74944e-05
-4.9241e-05
-1.81601e-05
-5.15876e-05
-1.88265e-05
-5.39072e-05
-1.94943e-05
-5.61996e-05
-2.0164e-05
-5.84646e-05
-2.08356e-05
-6.07017e-05
-2.15093e-05
-6.29113e-05
-2.21867e-05
-2.28697e-05
-9.8056e-06
-2.16924e-06
-1.23752e-05
-3.93246e-06
-1.48439e-05
-5.26084e-06
-1.73089e-05
-6.32892e-06
-1.97911e-05
-7.2402e-06
-2.22913e-05
-8.05607e-06
-2.48036e-05
-8.81633e-06
-2.73216e-05
-9.54409e-06
-2.98393e-05
-1.02529e-05
-3.23518e-05
-1.09508e-05
-3.48548e-05
-1.16428e-05
-3.73445e-05
-1.2332e-05
-3.98175e-05
-1.30203e-05
-4.22705e-05
-1.37089e-05
-4.47008e-05
-1.43983e-05
-4.71065e-05
-1.50887e-05
-4.94863e-05
-1.57803e-05
-5.18396e-05
-1.64732e-05
-5.41663e-05
-1.71677e-05
-5.64661e-05
-1.78641e-05
-5.87389e-05
-1.85628e-05
-6.09841e-05
-1.92641e-05
-6.32024e-05
-1.99684e-05
-2.0676e-05
-1.0123e-05
1.15345e-06
-1.2566e-05
-1.48942e-06
-1.49637e-05
-2.86323e-06
-1.73924e-05
-3.90017e-06
-1.98549e-05
-4.77771e-06
-2.23431e-05
-5.56786e-06
-2.48474e-05
-6.31203e-06
-2.73594e-05
-7.03206e-06
-2.98725e-05
-7.73981e-06
-3.23812e-05
-8.44206e-06
-3.48811e-05
-9.14288e-06
-3.73682e-05
-9.84485e-06
-3.9839e-05
-1.05495e-05
-4.22902e-05
-1.12577e-05
-4.4719e-05
-1.19695e-05
-4.71234e-05
-1.26843e-05
-4.95021e-05
-1.34016e-05
-5.18544e-05
-1.41209e-05
-5.418e-05
-1.4842e-05
-5.6479e-05
-1.55652e-05
-5.8751e-05
-1.62908e-05
-6.09957e-05
-1.70193e-05
-6.32138e-05
-1.77503e-05
-1.84822e-05
-4.24084e-07
4.24084e-07
-1.67999e-06
1.25591e-06
-3.37841e-06
1.69842e-06
-5.21836e-06
1.83995e-06
-7.04413e-06
1.82577e-06
1.944e-06
-8.98813e-06
-7.76757e-07
1.20084e-06
-2.18916e-06
2.66831e-06
-3.80696e-06
3.31622e-06
-5.47866e-06
3.51165e-06
-7.17382e-06
3.52093e-06
3.4783e-06
-8.70812e-06
-8.9308e-07
2.09392e-06
-2.28198e-06
4.05721e-06
-3.81482e-06
4.84906e-06
-5.36195e-06
5.05878e-06
-6.92612e-06
5.0851e-06
4.94499e-06
-8.39281e-06
-9.61177e-07
3.0551e-06
-2.26027e-06
5.35631e-06
-3.67619e-06
6.26497e-06
-5.11453e-06
6.49713e-06
-6.5716e-06
6.54217e-06
6.3654e-06
-7.99201e-06
-9.83938e-07
4.03904e-06
-2.16416e-06
6.53653e-06
-3.45259e-06
7.5534e-06
-4.78536e-06
7.8299e-06
-6.14903e-06
7.90584e-06
7.73436e-06
-7.51799e-06
-9.56427e-07
4.99546e-06
-2.01043e-06
7.59053e-06
-3.16649e-06
8.70945e-06
-4.39128e-06
9.05469e-06
-5.66481e-06
9.17937e-06
9.04691e-06
-6.97736e-06
-8.90661e-07
5.88612e-06
-1.80923e-06
8.5091e-06
-2.82854e-06
9.72876e-06
-3.94014e-06
1.01663e-05
-5.12136e-06
1.03606e-05
1.02962e-05
-6.37067e-06
-7.94855e-07
6.68098e-06
-1.56884e-06
9.28309e-06
-2.44562e-06
1.06055e-05
-3.4365e-06
1.11572e-05
-4.51961e-06
1.14437e-05
1.14733e-05
-5.6967e-06
-6.73683e-07
7.35466e-06
-1.29538e-06
9.90479e-06
-2.02272e-06
1.13329e-05
-2.88339e-06
1.20178e-05
-3.85963e-06
1.24199e-05
1.25674e-05
-4.95376e-06
-5.31092e-07
7.88575e-06
-9.939e-07
1.03676e-05
-1.56401e-06
1.1903e-05
-2.28308e-06
1.27369e-05
-3.14096e-06
1.32778e-05
1.35664e-05
-4.13988e-06
-3.70951e-07
8.25671e-06
-6.69055e-07
1.06657e-05
-1.0735e-06
1.23074e-05
-1.63779e-06
1.33012e-05
-2.36316e-06
1.40032e-05
1.44562e-05
-3.25303e-06
-1.97072e-07
8.45378e-06
-3.2557e-07
1.07942e-05
-5.55234e-07
1.25371e-05
-9.50045e-07
1.3696e-05
-1.52613e-06
1.45793e-05
1.52212e-05
-2.29114e-06
-9.11851e-09
8.4629e-06
3.03986e-08
1.07547e-05
-1.32004e-08
1.25807e-05
-2.22995e-07
1.39058e-05
-6.30303e-07
1.49866e-05
1.58433e-05
-1.25231e-06
1.75151e-07
8.28774e-06
3.96899e-07
1.05329e-05
5.4595e-07
1.24316e-05
5.39435e-07
1.39123e-05
3.23049e-07
1.5203e-05
1.63016e-05
-1.35275e-07
3.64337e-07
7.92341e-06
7.64871e-07
1.01324e-05
1.11694e-06
1.20796e-05
1.33166e-06
1.36976e-05
1.33157e-06
1.52031e-05
1.65708e-05
1.06229e-06
5.49503e-07
7.37391e-06
1.12836e-06
9.55354e-06
1.69086e-06
1.15171e-05
2.14573e-06
1.32427e-05
2.39081e-06
1.4958e-05
1.66216e-05
2.3401e-06
7.24436e-07
6.64947e-06
1.47875e-06
8.79922e-06
2.25676e-06
1.07391e-05
2.97019e-06
1.25293e-05
3.49287e-06
1.44353e-05
1.64169e-05
3.69753e-06
8.81548e-07
5.76792e-06
1.80485e-06
7.87592e-06
2.79985e-06
9.74407e-06
3.78841e-06
1.15407e-05
4.62388e-06
1.35998e-05
1.59106e-05
5.13017e-06
1.01046e-06
4.75746e-06
2.09222e-06
6.79416e-06
3.30071e-06
8.53557e-06
4.57706e-06
1.02644e-05
5.76221e-06
1.24147e-05
1.50442e-05
6.62859e-06
1.09642e-06
3.66104e-06
2.32203e-06
5.56855e-06
3.73328e-06
7.12433e-06
5.30399e-06
8.69368e-06
6.87611e-06
1.08426e-05
1.37417e-05
8.17865e-06
1.1203e-06
2.54074e-06
2.46932e-06
4.21953e-06
4.06399e-06
5.52966e-06
5.92497e-06
6.83269e-06
7.91831e-06
8.84923e-06
1.18959e-05
9.7641e-06
1.06398e-06
1.47676e-06
2.50402e-06
2.77948e-06
4.25311e-06
3.78058e-06
6.38095e-06
4.70485e-06
8.83027e-06
6.3999e-06
9.33496e-06
1.13912e-05
9.11724e-07
5.65041e-07
2.38315e-06
1.30806e-06
4.24639e-06
1.91733e-06
6.57339e-06
2.37786e-06
9.53819e-06
3.4351e-06
5.67663e-06
1.31965e-05
5.65041e-07
1.8731e-06
3.79043e-06
6.16829e-06
9.60339e-06
1.528e-05
-1.04372e-05
2.60248e-06
-1.26369e-05
7.10375e-07
-1.49567e-05
-5.43435e-07
-1.73442e-05
-1.51268e-06
-1.97812e-05
-2.34078e-06
-2.22506e-05
-3.09838e-06
-2.47395e-05
-3.82321e-06
-2.72378e-05
-4.53369e-06
-2.97384e-05
-5.23925e-06
-3.22354e-05
-5.94504e-06
-3.47242e-05
-6.65408e-06
-3.72008e-05
-7.36828e-06
-3.96615e-05
-8.08879e-06
-4.21032e-05
-8.81606e-06
-4.45229e-05
-9.54976e-06
-4.69184e-05
-1.02888e-05
-4.92882e-05
-1.10318e-05
-5.16316e-05
-1.17775e-05
-5.39483e-05
-1.25254e-05
-5.62381e-05
-1.32754e-05
-5.85009e-05
-1.4028e-05
-6.07365e-05
-1.47837e-05
-6.29455e-05
-1.55414e-05
-1.62974e-05
-1.0439e-05
4.33332e-06
-1.25432e-05
2.81466e-06
-1.48068e-05
1.72013e-06
-1.71585e-05
8.39024e-07
-1.95675e-05
6.82366e-08
-2.20126e-05
-6.53287e-07
-2.44791e-05
-1.35678e-06
-2.69563e-05
-2.05642e-06
-2.94367e-05
-2.75889e-06
-3.19142e-05
-3.46754e-06
-3.43841e-05
-4.18421e-06
-3.68423e-05
-4.91007e-06
-3.92852e-05
-5.64582e-06
-4.17097e-05
-6.39162e-06
-4.41127e-05
-7.14676e-06
-4.64918e-05
-7.90968e-06
-4.88453e-05
-8.67827e-06
-5.11722e-05
-9.45062e-06
-5.3472e-05
-1.02255e-05
-5.57446e-05
-1.10028e-05
-5.79899e-05
-1.17828e-05
-6.02076e-05
-1.2566e-05
-6.23985e-05
-1.33504e-05
-1.41307e-05
-1.02076e-05
6.14814e-06
-1.22895e-05
4.89657e-06
-1.45175e-05
3.94806e-06
-1.68365e-05
3.15807e-06
-1.92145e-05
2.44618e-06
-2.16294e-05
1.76168e-06
-2.40666e-05
1.0804e-06
-2.65154e-05
3.92369e-07
-2.89679e-05
-3.06352e-07
-3.14182e-05
-1.01726e-06
-3.38614e-05
-1.741e-06
-3.62935e-05
-2.47794e-06
-3.8711e-05
-3.22831e-06
-4.11107e-05
-3.99197e-06
-4.34895e-05
-4.76796e-06
-4.58448e-05
-5.55434e-06
-4.81747e-05
-6.34845e-06
-5.04776e-05
-7.14767e-06
-5.2753e-05
-7.95017e-06
-5.50005e-05
-8.75526e-06
-5.72199e-05
-9.56336e-06
-5.94109e-05
-1.03749e-05
-6.15746e-05
-1.11868e-05
-1.19909e-05
-9.83903e-06
7.99515e-06
-1.19021e-05
6.95966e-06
-1.40986e-05
6.14455e-06
-1.63827e-05
5.4422e-06
-1.87243e-05
4.78773e-06
-2.11026e-05
4.13997e-06
-2.35034e-05
3.48118e-06
-2.59162e-05
2.80524e-06
-2.83334e-05
2.1108e-06
-3.07488e-05
1.39815e-06
-3.31577e-05
6.6788e-07
-3.55561e-05
-7.95607e-08
-3.79405e-05
-8.43896e-07
-4.03078e-05
-1.62468e-06
-4.26549e-05
-2.42081e-06
-4.49791e-05
-3.23011e-06
-4.7278e-05
-4.04954e-06
-4.95499e-05
-4.87585e-06
-5.17935e-05
-5.70654e-06
-5.40083e-05
-6.54042e-06
-5.6194e-05
-7.37774e-06
-5.83498e-05
-8.21909e-06
-6.04756e-05
-9.06098e-06
-9.8856e-06
-9.36591e-06
9.84307e-06
-1.14004e-05
8.99417e-06
-1.35594e-05
8.30357e-06
-1.5802e-05
7.6848e-06
-1.81002e-05
7.08584e-06
-2.04345e-05
6.47433e-06
-2.27915e-05
5.83815e-06
-2.51609e-05
5.17469e-06
-2.75351e-05
4.485e-06
-2.99081e-05
3.7711e-06
-3.2275e-05
3.03481e-06
-3.4632e-05
2.27744e-06
-3.69757e-05
1.4998e-06
-3.9303e-05
7.02631e-07
-4.1611e-05
-1.12852e-07
-4.38967e-05
-9.44426e-07
-4.61574e-05
-1.78882e-06
-4.83909e-05
-2.64236e-06
-5.05955e-05
-3.50189e-06
-5.27703e-05
-4.36566e-06
-5.49144e-05
-5.23364e-06
-5.70268e-05
-6.10667e-06
-5.91055e-05
-6.9823e-06
-7.82147e-06
-8.79993e-06
1.16656e-05
-1.0794e-05
1.09882e-05
-1.29061e-05
1.04156e-05
-1.50986e-05
9.87735e-06
-1.73453e-05
9.33255e-06
-1.9628e-05
8.75704e-06
-2.19336e-05
8.1437e-06
-2.4252e-05
7.49315e-06
-2.65758e-05
6.80871e-06
-2.88987e-05
6.09406e-06
-3.12162e-05
5.35226e-06
-3.35242e-05
4.58549e-06
-3.58196e-05
3.79516e-06
-3.80992e-05
2.9823e-06
-4.03603e-05
2.14822e-06
-4.25998e-05
1.29507e-06
-4.48147e-05
4.26112e-07
-4.70024e-05
-4.54695e-07
-4.91606e-05
-1.34367e-06
-5.12879e-05
-2.23842e-06
-5.33829e-05
-3.13857e-06
-5.54447e-05
-4.04493e-06
-5.74727e-05
-4.95426e-06
-5.80743e-06
-8.14649e-06
1.34415e-05
-1.00873e-05
1.29291e-05
-1.21422e-05
1.24706e-05
-1.42758e-05
1.20109e-05
-1.64629e-05
1.15197e-05
-1.86862e-05
1.09803e-05
-2.09327e-05
1.03902e-05
-2.31927e-05
9.75314e-06
-2.54585e-05
9.0745e-06
-2.77241e-05
8.35962e-06
-2.99846e-05
7.6128e-06
-3.22362e-05
6.83713e-06
-3.44757e-05
6.03465e-06
-3.67002e-05
5.20674e-06
-3.89067e-05
4.35475e-06
-4.10924e-05
3.48073e-06
-4.3254e-05
2.58776e-06
-4.53886e-05
1.67986e-06
-4.74934e-05
7.61124e-07
-4.95664e-05
-1.65349e-07
-5.16064e-05
-1.09856e-06
-5.36126e-05
-2.03879e-06
-5.55854e-05
-2.98142e-06
-3.85763e-06
-7.40747e-06
1.51522e-05
-9.28249e-06
1.48041e-05
-1.12704e-05
1.44585e-05
-1.33364e-05
1.40769e-05
-1.54561e-05
1.36393e-05
-1.76123e-05
1.31365e-05
-1.97924e-05
1.25703e-05
-2.19866e-05
1.19473e-05
-2.41871e-05
1.12751e-05
-2.63881e-05
1.05605e-05
-2.85845e-05
9.8092e-06
-3.07724e-05
9.02511e-06
-3.29488e-05
8.21098e-06
-3.51106e-05
7.36857e-06
-3.72552e-05
6.49936e-06
-3.93797e-05
5.60523e-06
-4.14809e-05
4.68898e-06
-4.35555e-05
3.75446e-06
-4.56004e-05
2.806e-06
-4.7613e-05
1.84729e-06
-4.95917e-05
8.80057e-07
-5.15351e-05
-9.53071e-08
-5.34431e-05
-1.07342e-06
-1.97789e-06
-6.58276e-06
1.67812e-05
-8.38036e-06
1.66017e-05
-1.02923e-05
1.63705e-05
-1.2283e-05
1.60675e-05
-1.43278e-05
1.56841e-05
-1.64098e-05
1.52185e-05
-1.85163e-05
1.46769e-05
-2.06377e-05
1.40686e-05
-2.2766e-05
1.34034e-05
-2.48953e-05
1.26898e-05
-2.70206e-05
1.19345e-05
-2.91379e-05
1.11424e-05
-3.1244e-05
1.03171e-05
-3.33362e-05
9.46074e-06
-3.54117e-05
8.57494e-06
-3.7468e-05
7.66147e-06
-3.95018e-05
6.72278e-06
-4.15097e-05
5.76238e-06
-4.34882e-05
4.7845e-06
-4.54341e-05
3.7932e-06
-4.73449e-05
2.79085e-06
-4.92187e-05
1.77848e-06
-5.10542e-05
7.62095e-07
-1.74223e-07
-5.6713e-06
1.83127e-05
-7.3809e-06
1.83113e-05
-9.20904e-06
1.81986e-05
-1.11175e-05
1.79759e-05
-1.30809e-05
1.76476e-05
-1.50822e-05
1.72198e-05
-1.71087e-05
1.67034e-05
-1.91506e-05
1.61105e-05
-2.12e-05
1.54529e-05
-2.32509e-05
1.47407e-05
-2.52983e-05
1.39818e-05
-2.73382e-05
1.31823e-05
-2.93674e-05
1.23463e-05
-3.13831e-05
1.14765e-05
-3.33828e-05
1.05747e-05
-3.5364e-05
9.64257e-06
-3.73235e-05
8.68231e-06
-3.9258e-05
7.69686e-06
-4.11636e-05
6.69011e-06
-4.30365e-05
5.66612e-06
-4.48733e-05
4.62769e-06
-4.66713e-05
3.57641e-06
-4.8428e-05
2.51887e-06
1.54669e-06
-4.67142e-06
1.97311e-05
-6.28342e-06
1.99233e-05
-8.02107e-06
1.99363e-05
-9.84174e-06
1.97966e-05
-1.17184e-05
1.95243e-05
-1.36334e-05
1.91348e-05
-1.55739e-05
1.86439e-05
-1.75302e-05
1.80667e-05
-1.94945e-05
1.74172e-05
-2.14607e-05
1.67069e-05
-2.34238e-05
1.5945e-05
-2.53798e-05
1.51384e-05
-2.73256e-05
1.42921e-05
-2.92584e-05
1.34092e-05
-3.11757e-05
1.24919e-05
-3.3075e-05
1.15419e-05
-3.49535e-05
1.05609e-05
-3.68079e-05
9.55124e-06
-3.86342e-05
8.51634e-06
-4.04279e-05
7.45988e-06
-4.2185e-05
6.38476e-06
-4.39014e-05
5.29288e-06
-4.55738e-05
4.19124e-06
3.17854e-06
-3.58097e-06
2.10209e-05
-5.08656e-06
2.14289e-05
-6.72845e-06
2.15782e-05
-8.45728e-06
2.15254e-05
-1.02431e-05
2.13102e-05
-1.20673e-05
2.09589e-05
-1.39167e-05
2.04934e-05
-1.5782e-05
1.9932e-05
-1.76554e-05
1.92906e-05
-1.95309e-05
1.85824e-05
-2.14036e-05
1.78177e-05
-2.32697e-05
1.70045e-05
-2.51258e-05
1.61482e-05
-2.69694e-05
1.52528e-05
-2.87979e-05
1.43205e-05
-3.06091e-05
1.33531e-05
-3.24002e-05
1.2352e-05
-3.4168e-05
1.13191e-05
-3.59086e-05
1.02568e-05
-3.76171e-05
9.16842e-06
-3.92887e-05
8.0564e-06
-4.09185e-05
6.92265e-06
-4.25014e-05
5.77412e-06
4.71558e-06
-2.39744e-06
2.2166e-05
-3.7884e-06
2.28198e-05
-5.33056e-06
2.31203e-05
-6.96512e-06
2.316e-05
-8.65762e-06
2.30027e-05
-1.03877e-05
2.2689e-05
-1.21422e-05
2.22479e-05
-1.39118e-05
2.17015e-05
-1.56892e-05
2.10679e-05
-1.74685e-05
2.03617e-05
-1.92452e-05
1.95944e-05
-2.10154e-05
1.87746e-05
-2.27759e-05
1.79088e-05
-2.45243e-05
1.70011e-05
-2.62581e-05
1.60543e-05
-2.7975e-05
1.507e-05
-2.96725e-05
1.40495e-05
-3.13476e-05
1.29941e-05
-3.29962e-05
1.19055e-05
-3.46137e-05