/*--------------------------------*- C++ -*----------------------------------*\
  =========                 |
  \\      /  F ield         | OpenFOAM: The Open Source CFD Toolbox
   \\    /   O peration     | Website:  https://openfoam.org
    \\  /    A nd           | Version:  11
     \\/     M anipulation  |
\*---------------------------------------------------------------------------*/
FoamFile
{
    format      ascii;
    class       volVectorField;
    location    "1.76";
    object      U;
}
// * * * * * * * * * * * * * * * * * * * * * * * * * * * * * * * * * * * * * //

dimensions      [0 1 -1 0 0 0 0];

internalField   nonuniform List<vector> 
2880
(
(-0.0416326 -0.0485698 -4.18085e-20)
(-0.045362 -0.03583 4.86969e-19)
(-0.0466464 0.0725376 2.38136e-20)
(-0.0779501 0.293587 1.15373e-19)
(0.00488745 0.453671 3.20611e-20)
(-0.000287484 1.10116 0)
(-0.0435022 -0.0464572 -3.76572e-20)
(-0.0310302 0.00772041 5.40737e-19)
(-0.0111224 0.143328 -4.39363e-20)
(-0.00907962 0.347811 -2.18249e-19)
(0.0605609 0.556829 -5.76067e-20)
(0.19334 0.926423 3.25334e-19)
(-0.0427826 -0.0380495 -1.03557e-18)
(-0.0141112 0.0407452 -1.69107e-18)
(0.0251961 0.186512 -8.06225e-20)
(0.0560039 0.379523 5.86519e-19)
(0.152958 0.595032 0)
(0.301945 0.853415 -6.70083e-19)
(-0.0420653 -0.0299995 1.06957e-18)
(0.00391624 0.0678128 7.49676e-19)
(0.0610374 0.217878 0)
(0.116274 0.400482 -1.11476e-18)
(0.2262 0.599067 5.84507e-19)
(0.377498 0.792436 -8.17279e-20)
(-0.0403149 -0.020071 3.56421e-20)
(0.0220362 0.0903474 1.4431e-18)
(0.0944773 0.240518 7.45086e-20)
(0.16869 0.412004 4.82717e-19)
(0.284414 0.586087 -3.82667e-19)
(0.429644 0.729819 2.89914e-19)
(-0.0358808 -0.00748504 0)
(0.0393725 0.106905 -1.50615e-18)
(0.124616 0.255129 -1.16042e-18)
(0.212563 0.41501 0)
(0.329842 0.563769 -7.52256e-19)
(0.465153 0.669731 5.8317e-19)
(-0.0315233 0.00114276 -7.63047e-20)
(0.0555035 0.117568 1.52644e-18)
(0.151314 0.262662 2.4389e-18)
(0.249036 0.410827 -1.18126e-19)
(0.364741 0.536154 9.23196e-19)
(0.488865 0.614816 -7.27277e-19)
(-0.0262532 0.00578554 2.39321e-18)
(0.0702514 0.123142 -1.3756e-18)
(0.174596 0.264375 -7.42575e-20)
(0.279213 0.400894 0)
(0.391277 0.506106 7.38078e-19)
(0.504649 0.564532 0)
(-0.0199759 0.00724275 -2.42821e-18)
(0.0834601 0.12459 0)
(0.19455 0.261427 -1.13941e-18)
(0.303844 0.386795 0)
(0.411269 0.475163 -9.09101e-19)
(0.514852 0.518207 2.86054e-19)
(-0.0134185 0.0061001 3.78587e-20)
(0.09489 0.122772 1.3551e-18)
(0.211254 0.25474 -6.89202e-20)
(0.32345 0.369924 4.384e-21)
(0.426095 0.444106 -6.35682e-19)
(0.521034 0.47515 -1.37145e-19)
(-0.00722197 0.00293559 -2.30491e-18)
(0.104245 0.1184 -1.44449e-18)
(0.224745 0.245046 -2.12959e-19)
(0.33858 0.351147 1.04298e-18)
(0.436762 0.413345 9.01918e-19)
(0.524312 0.434788 -1.47817e-19)
(-0.00188535 -0.00168299 5.02222e-18)
(0.111248 0.111991 -1.79895e-19)
(0.235001 0.232905 2.14068e-19)
(0.349789 0.330903 -8.19585e-19)
(0.444064 0.383031 3.64885e-19)
(0.525431 0.396643 7.20322e-19)
(0.00218901 -0.00726488 -2.37823e-18)
(0.115674 0.103893 0)
(0.24196 0.218687 0)
(0.357536 0.309407 -9.3499e-19)
(0.448603 0.353185 -7.26671e-19)
(0.524869 0.360243 -1.14464e-18)
(0.0046478 -0.0134848 0)
(0.117308 0.0943293 -1.36367e-18)
(0.245554 0.202591 -1.24127e-18)
(0.362113 0.286766 -1.10667e-21)
(0.450849 0.32375 -7.32917e-19)
(0.523009 0.325178 5.73265e-19)
(0.00533709 -0.0199437 2.48855e-18)
(0.115912 0.0834248 1.42377e-18)
(0.245687 0.184679 -1.46476e-19)
(0.363692 0.26295 2.14779e-18)
(0.451155 0.294614 1.3829e-18)
(0.520152 0.291082 1.40224e-19)
(0.0042424 -0.0261151 -2.35313e-21)
(0.111265 0.0712639 -1.4865e-18)
(0.242236 0.164928 2.39618e-18)
(0.362281 0.23785 -1.93943e-18)
(0.449759 0.265564 3.26065e-21)
(0.516544 0.257616 0)
(0.00134072 -0.0314673 -4.7306e-18)
(0.103128 0.0579148 1.46469e-18)
(0.235008 0.143237 -1.21748e-18)
(0.357734 0.211274 -2.29708e-21)
(0.446778 0.236351 -7.61502e-19)
(0.512396 0.224455 0)
(-0.00459655 -0.0391856 4.50304e-18)
(0.0911151 0.0434312 1.54095e-18)
(0.22376 0.119458 -7.69465e-20)
(0.349659 0.182866 6.11809e-20)
(0.442181 0.206614 -9.53114e-20)
(0.50794 0.191262 -6.8533e-20)
(-0.0119246 -0.0424138 -1.97095e-18)
(0.0750389 0.0275686 -1.47769e-18)
(0.208199 0.0934287 5.5534e-19)
(0.337388 0.152183 9.0516e-19)
(0.435702 0.175766 2.00972e-19)
(0.50341 0.157674 -3.90827e-19)
(-0.0194479 -0.0447688 0)
(0.0569651 0.0104118 -5.06121e-20)
(0.18804 0.0651879 -6.10931e-19)
(0.319893 0.118689 6.5505e-20)
(0.42663 0.143002 -5.32178e-20)
(0.499068 0.123258 2.42771e-19)
(-0.0259617 -0.0474159 -4.78264e-19)
(0.0369347 -0.00756001 0)
(0.162653 0.0350355 3.3574e-19)
(0.2956 0.0820273 3.41136e-19)
(0.413317 0.107148 -5.55134e-20)
(0.495207 0.0873873 8.03022e-20)
(-0.0305843 -0.0485715 2.58375e-19)
(0.0150662 -0.0249586 0)
(0.130642 0.003692 -3.48426e-19)
(0.261813 0.0422188 -1.41463e-19)
(0.392035 0.0664613 0)
(0.492038 0.0488502 0)
(-0.0344738 -0.0484545 3.08214e-19)
(-0.00849837 -0.0410909 -2.14674e-20)
(0.0887641 -0.0273323 -1.12485e-20)
(0.212453 -0.00159042 -1.28124e-19)
(0.354015 0.0166108 0)
(0.489369 0.00188157 0)
(-0.0304909 -0.044411 -3.22577e-19)
(-0.0282326 -0.0530005 2.47735e-19)
(0.0300466 -0.0584517 1.15615e-20)
(0.13434 -0.0543311 -1.88907e-20)
(0.283884 -0.0447581 0)
(0.482615 -0.0367897 0)
(0.819683 1.24693 0)
(1.10835 0.945445 -3.7791e-21)
(1.21665 0.760607 4.5929e-21)
(1.25989 0.634426 -2.43859e-20)
(1.27617 0.534513 -4.12147e-21)
(1.28098 0.455851 8.94153e-21)
(1.28019 0.393132 -1.48316e-21)
(1.27609 0.342126 1.52875e-20)
(1.26975 0.299932 -7.83911e-21)
(1.26179 0.264538 1.59856e-20)
(1.2526 0.234503 -9.50273e-21)
(1.24242 0.208759 -1.57275e-20)
(1.2314 0.186493 -1.4212e-20)
(1.21958 0.167072 -7.75704e-21)
(1.20695 0.149995 1.35267e-20)
(1.19346 0.134862 6.26405e-21)
(1.179 0.121355 6.15905e-21)
(1.16343 0.109234 2.57602e-20)
(1.1466 0.0983284 -1.88926e-20)
(1.12829 0.088462 0)
(1.10831 0.0792479 0)
(1.08637 0.0704929 0)
(1.06131 0.064921 6.01884e-21)
(1.029 0.0804932 0)
(0.773959 1.05531 -2.14929e-19)
(1.03036 0.891532 1.38437e-20)
(1.13928 0.7403 0)
(1.19085 0.622764 2.4335e-20)
(1.21616 0.529154 -6.56468e-20)
(1.22881 0.454727 8.34905e-20)
(1.23441 0.39488 2.94419e-20)
(1.2355 0.345839 0)
(1.23346 0.304974 -2.44021e-20)
(1.22912 0.270455 -1.90959e-20)
(1.22304 0.240962 5.35735e-20)
(1.21557 0.21551 -1.85782e-20)
(1.20692 0.193342 -2.08341e-21)
(1.19721 0.173862 -3.19404e-20)
(1.18648 0.156595 0)
(1.1747 0.141158 0)
(1.16182 0.127241 0)
(1.14774 0.114604 -2.95901e-20)
(1.13232 0.103056 -2.87583e-20)
(1.11542 0.0923206 0)
(1.09686 0.0818411 0)
(1.07622 0.0717615 -2.68996e-20)
(1.05135 0.0668645 0)
(1.01843 0.0790341 3.13796e-20)
(0.72112 0.966331 2.7798e-19)
(0.961557 0.842112 -8.8303e-21)
(1.06983 0.708281 -2.86742e-20)
(1.12735 0.601669 0)
(1.16031 0.516355 6.44273e-20)
(1.17976 0.447603 -5.71885e-20)
(1.19096 0.391539 -5.18289e-20)
(1.19666 0.345067 4.81908e-21)
(1.1985 0.305971 9.30741e-20)
(1.19749 0.272665 0)
(1.1943 0.24398 0)
(1.18938 0.219027 0)
(1.183 0.197112 3.5569e-20)
(1.17532 0.177679 1.10413e-19)
(1.16642 0.160281 -6.89435e-20)
(1.15632 0.144547 0)
(1.14499 0.130173 -3.35e-20)
(1.13235 0.116917 2.96641e-20)
(1.1183 0.104571 2.88737e-20)
(1.10272 0.0927968 5.83558e-20)
(1.08549 0.081003 -1.1409e-19)
(1.06604 0.0697285 5.37945e-20)
(1.04194 0.0648747 -1.1843e-19)
(1.01147 0.0743292 1.15765e-19)
(0.691328 0.870799 5.91431e-20)
(0.901293 0.777693 -5.04653e-20)
(1.00862 0.666912 0)
(1.07097 0.574219 0)
(1.10975 0.498214 9.68548e-20)
(1.13454 0.435718 0)
(1.15033 0.383889 -1.40154e-19)
(1.15998 0.340359 -5.50922e-20)
(1.16523 0.303343 5.63051e-20)
(1.16721 0.271511 5.10851e-20)
(1.16666 0.243852 -9.83562e-20)
(1.1641 0.219579 -4.70432e-20)
(1.15983 0.198065 8.40792e-20)
(1.15407 0.178802 -1.59662e-19)
(1.14691 0.16137 -3.97493e-20)
(1.1384 0.145419 0)
(1.12855 0.130663 3.3552e-20)
(1.11729 0.116873 -3.51826e-20)
(1.10456 0.103848 0)
(1.09027 0.0912474 -1.26645e-19)
(1.07436 0.0785155 1.23692e-19)
(1.05619 0.0664537 -2.26044e-21)
(1.03314 0.061373 1.26668e-19)
(1.00509 0.0685466 -1.2305e-19)
(0.673206 0.783562 -6.03948e-19)
(0.854218 0.712822 -3.30399e-19)
(0.957532 0.622581 -8.28506e-20)
(1.02207 0.543258 2.61847e-19)
(1.06463 0.476316 -1.45071e-19)
(1.09335 0.420091 4.53929e-20)
(1.11279 0.372658 -1.66552e-19)
(1.12572 0.332274 -7.50667e-20)
(1.13391 0.297542 0)
(1.13851 0.267375 1.13167e-19)
(1.14034 0.240916 4.85077e-20)
(1.13991 0.217481 5.06006e-20)
(1.13759 0.196513 0)
(1.1336 0.177551 4.17096e-20)
(1.12808 0.160211 1.22428e-19)
(1.12109 0.144174 2.8766e-21)
(1.11265 0.129175 -1.51893e-19)
(1.10275 0.11501 -4.0219e-20)
(1.09133 0.101501 2.10248e-19)
(1.07838 0.0883248 -1.37859e-19)
(1.06389 0.0749762 0)
(1.0472 0.0624128 -1.03427e-19)
(1.02546 0.0570092 6.18054e-20)
(0.999733 0.0622809 6.72304e-20)
(0.660476 0.706426 5.9296e-19)
(0.817099 0.651207 5.20574e-19)
(0.914954 0.577759 -9.08674e-20)
(0.979886 0.510345 -3.23249e-19)
(1.0247 0.451806 5.92867e-20)
(1.0562 0.401601 -9.47433e-20)
(1.07845 0.358532 4.26329e-19)
(1.09405 0.321363 1.43795e-19)
(1.10471 0.289028 -1.34775e-19)
(1.11159 0.260653 1.26283e-19)
(1.11551 0.235527 1.13905e-19)
(1.117 0.213061 -2.10021e-19)
(1.11645 0.19277 0)
(1.11409 0.174242 9.39533e-20)
(1.11008 0.157133 2.77772e-21)
(1.10452 0.141155 -1.70973e-19)
(1.09745 0.126074 0)
(1.08888 0.111716 -1.63176e-19)
(1.07879 0.09793 1.48308e-19)
(1.06722 0.084422 0)
(1.05424 0.0707373 -7.40053e-20)
(1.03915 0.0579253 0)
(1.01887 0.0522091 2.87811e-19)
(0.995423 0.0558355 -2.04758e-19)
(0.650717 0.638446 6.44772e-19)
(0.787576 0.594056 -4.78772e-19)
(0.879536 0.533868 -8.6464e-20)
(0.94365 0.476614 7.74202e-20)
(0.989584 0.425602 -2.545e-19)
(1.02295 0.380998 -2.18172e-19)
(1.0473 0.342129 -3.6691e-19)
(1.06502 0.308143 -1.69513e-19)
(1.07773 0.27824 -2.97865e-19)
(1.08655 0.25173 1.36258e-19)
(1.09229 0.228029 -5.41573e-21)
(1.09548 0.206639 -2.29711e-19)
(1.09652 0.187139 2.19151e-19)
(1.09566 0.16917 0)
(1.09307 0.152426 9.84606e-20)
(1.08886 0.136655 -2.78407e-19)
(1.0831 0.121653 1.76773e-19)
(1.07583 0.107281 8.22119e-20)
(1.06707 0.0934183 -1.68386e-19)
(1.05691 0.0798033 3.17196e-19)
(1.04549 0.0660348 -3.12811e-19)
(1.03206 0.0532053 1.50496e-19)
(1.01334 0.0472231 -7.42583e-20)
(0.992151 0.0494149 -1.36532e-19)
(0.642515 0.578371 -1.32596e-19)
(0.763714 0.541464 7.17815e-19)
(0.849946 0.491559 -1.92368e-19)
(0.912552 0.442778 -6.79513e-20)
(0.958822 0.398374 2.61273e-19)
(0.993352 0.358884 4.53602e-19)
(1.01924 0.323975 4.92079e-19)
(1.03861 0.293071 1.68358e-19)
(1.05299 0.265582 1.51781e-19)
(1.06346 0.240966 -2.88679e-19)
(1.07076 0.218749 2.60788e-19)
(1.07546 0.198516 0)
(1.07792 0.179905 6.7672e-21)
(1.07842 0.162605 1.10918e-19)
(1.07713 0.146351 -2.039e-19)
(1.0742 0.130924 1.02294e-19)
(1.0697 0.116155 1.43369e-21)
(1.06371 0.10194 1.21844e-21)
(1.05627 0.0881893 2.60491e-19)
(1.04754 0.0746765 -1.68443e-19)
(1.03768 0.0610546 4.87872e-19)
(1.02592 0.0484159 -6.47987e-19)
(1.00884 0.0422233 3.1593e-19)
(0.989851 0.0431665 -3.0367e-19)
(0.635135 0.524627 -7.35323e-19)
(0.74405 0.492953 5.07099e-19)
(0.82506 0.451007 -9.48373e-20)
(0.88585 0.409246 2.41623e-19)
(0.931951 0.370597 -1.42283e-19)
(0.967147 0.335727 -1.14096e-19)
(0.994111 0.304505 -9.4999e-20)
(1.01476 0.276545 -1.80633e-19)
(1.0305 0.251413 1.69056e-19)
(1.04232 0.228688 4.5111e-19)
(1.05098 0.207989 -4.21283e-19)
(1.05698 0.188972 2.63126e-19)
(1.06071 0.17133 -1.17767e-19)
(1.06244 0.154797 5.8567e-21)
(1.06237 0.139145 0)
(1.06063 0.124189 1.05557e-19)
(1.05733 0.109798 -1.03665e-19)
(1.05258 0.0958994 -1.35743e-21)
(1.04645 0.0824374 -9.11714e-20)
(1.03912 0.0692194 1.78652e-19)
(1.03081 0.0559507 -1.78373e-19)
(1.02067 0.0436835 0)
(1.00526 0.0373369 -2.50821e-19)
(0.988422 0.0372055 4.85136e-19)
(0.628241 0.475844 -5.78967e-19)
(0.727554 0.447902 -1.01792e-18)
(0.803996 0.41216 -9.78018e-20)
(0.862904 0.376234 8.78156e-20)
(0.908542 0.342594 -4.27851e-19)
(0.944053 0.311884 7.05129e-21)
(0.971755 0.284073 -3.20301e-19)
(0.993373 0.2589 1.89018e-19)
(1.01019 0.236046 -6.03697e-21)
(1.02314 0.215189 -1.53812e-19)
(1.03294 0.196022 1.42515e-19)
(1.04008 0.178263 -1.28342e-19)
(1.04494 0.161656 1.28484e-19)
(1.04779 0.145973 -1.17435e-19)
(1.04882 0.131024 0)
(1.0482 0.116658 1.11801e-19)
(1.04605 0.102778 1.02725e-19)
(1.04249 0.0893452 -9.85056e-20)
(1.03762 0.0763336 5.73541e-21)
(1.03165 0.0635839 1.89838e-19)
(1.02481 0.0508484 1.82676e-19)
(1.01624 0.0391022 -3.63237e-19)
(1.00252 0.0326583 7.03977e-19)
(0.987751 0.0316212 1.81191e-20)
(0.621633 0.430888 -1.68242e-19)
(0.713502 0.405691 5.24092e-19)
(0.786079 0.374853 1.09249e-19)
(0.843193 0.343833 0)
(0.888218 0.314578 1.45459e-19)
(0.923806 0.28762 1.3111e-19)
(0.951989 0.26296 2.195e-19)
(0.974323 0.240416 1.96468e-19)
(0.991989 0.219753 -6.2287e-21)
(1.00587 0.200725 -4.92616e-19)
(1.01664 0.183091 3.09632e-19)
(1.02477 0.16662 -2.83368e-19)
(1.03062 0.151101 3.99946e-19)
(1.03447 0.136342 -1.25549e-19)
(1.03652 0.122186 0)
(1.03694 0.108517 -2.29535e-19)
(1.03587 0.0952714 1.12528e-19)
(1.03344 0.0824412 -1.04255e-19)
(1.02978 0.0700259 -1.00659e-19)
(1.0251 0.0578954 0)
(1.01965 0.0458422 3.90149e-21)
(1.01254 0.0347354 -3.7946e-19)
(1.00051 0.0282549 7.3242e-19)
(0.987717 0.026479 -3.40675e-19)
(0.615212 0.388864 -7.71776e-21)
(0.701414 0.365735 0)
(0.770807 0.338883 6.32379e-19)
(0.826301 0.31206 -5.40741e-19)
(0.870658 0.286685 -3.04794e-19)
(0.906168 0.263132 -1.27692e-19)
(0.934638 0.241391 -3.42097e-19)
(0.95749 0.221326 2.11263e-19)
(0.975819 0.202765 0)
(0.990457 0.185522 1.73877e-19)
(1.00203 0.169413 -3.15976e-19)
(1.01101 0.154251 2.94579e-19)
(1.01774 0.139862 -1.36094e-19)
(1.02249 0.12609 1.32073e-19)
(1.02547 0.112809 1.24369e-19)
(1.02685 0.0999344 -6.54844e-21)
(1.02679 0.0874353 -2.27762e-19)
(1.02542 0.0753303 3.34847e-19)
(1.02288 0.0636377 -3.246e-19)
(1.01942 0.052252 -3.07793e-19)
(1.01523 0.0409983 6.02142e-19)
(1.00948 0.0306207 -3.89219e-19)
(0.999108 0.0241729 -4.73052e-19)
(0.988197 0.0218237 6.52903e-19)
(0.608982 0.349046 6.70369e-19)
(0.690973 0.327533 5.32553e-19)
(0.757818 0.304037 -3.2212e-19)
(0.811907 0.280886 8.78643e-20)
(0.855599 0.258999 4.62426e-19)
(0.890929 0.238568 -1.30823e-19)
(0.919542 0.219545 3.55235e-19)
(0.942752 0.201822 0)
(0.961585 0.185276 0)
(0.976829 0.169775 -3.52868e-19)
(0.989078 0.155176 1.60883e-19)
(0.998782 0.141336 -1.50181e-19)
(1.00628 0.128115 0)
(1.01183 0.115385 -1.32675e-19)
(1.01564 0.103051 3.92643e-19)
(1.0179 0.0910584 -2.54637e-19)
(1.01877 0.0794054 3.70668e-21)
(1.01838 0.0681314 3.59343e-21)
(1.01689 0.0572669 4.45445e-19)
(1.01453 0.0467251 -3.21749e-19)
(1.01149 0.0363579 2.07568e-19)
(1.00698 0.0267759 -3.05641e-19)
(0.998217 0.0204405 7.79636e-19)
(0.989073 0.0176809 4.88802e-20)
(0.60297 0.310809 0)
(0.681987 0.290653 -9.38485e-19)
(0.746864 0.270108 4.29133e-19)
(0.799772 0.250266 -2.71368e-19)
(0.842827 0.231574 -3.05886e-19)
(0.877911 0.214038 2.73861e-19)
(0.906552 0.197565 -1.24042e-19)
(0.929988 0.182065 0)
(0.949192 0.167456 -3.94578e-19)
(0.964911 0.15365 6.63261e-22)
(0.977713 0.140546 3.36672e-19)
(0.98803 0.128037 -1.58909e-19)
(0.996189 0.116011 0)
(1.00245 0.104371 -1.38885e-19)
(1.00701 0.0930481 -4.04032e-19)
(1.01006 0.0820152 2.60462e-19)
(1.01178 0.0712942 2.52878e-19)
(1.01228 0.0609393 -5.43766e-22)
(1.01174 0.0509861 -3.4529e-19)
(1.01037 0.0413625 2.21998e-19)
(1.00834 0.0319424 -3.2098e-19)
(1.00494 0.0232043 -1.02765e-19)
(0.997733 0.0170713 -5.03676e-19)
(0.990236 0.014059 2.7753e-19)
(0.597234 0.273611 -8.92003e-20)
(0.674363 0.254715 5.35317e-19)
(0.737791 0.236907 -4.36374e-19)
(0.789728 0.220145 0)
(0.83218 0.204445 4.78624e-19)
(0.866963 0.189632 2.78188e-19)
(0.895536 0.175571 2.43198e-19)
(0.919087 0.162189 1.051e-19)
(0.938544 0.149445 1.98106e-19)
(0.954624 0.137291 1.79777e-19)
(0.967869 0.125664 -3.45058e-19)
(0.978695 0.114489 1.63068e-19)
(0.987419 0.103683 0)
(0.99429 0.0931741 -4.34677e-19)
(0.999517 0.0829168 -1.42528e-22)
(1.00328 0.072909 1.53119e-21)
(1.00575 0.0631909 -2.55872e-19)
(1.00706 0.0538244 2.43039e-19)
(1.00736 0.044845 -1.18238e-19)
(1.00686 0.0361924 1.15823e-19)
(1.00573 0.0277593 -1.11735e-19)
(1.00331 0.0199009 1.08383e-19)
(0.997565 0.0140672 2.05766e-19)
(0.99158 0.0109503 0)
(0.591872 0.23696 0)
(0.668095 0.219388 0)
(0.730527 0.204269 0)
(0.781666 0.190481 1.80696e-19)
(0.823532 0.177645 -4.83326e-19)
(0.857961 0.165429 0)
(0.886378 0.153666 3.22664e-21)
(0.909942 0.142311 0)
(0.929549 0.131365 -1.06719e-21)
(0.945885 0.120821 1.86312e-19)
(0.959473 0.110651 0)
(0.970711 0.100811 0)
(0.979907 0.0912425 0)
(0.987304 0.081897 -1.48452e-19)
(0.993105 0.0727512 4.26863e-19)
(0.997491 0.0638219 5.45041e-19)
(1.00062 0.0551618 -1.26461e-21)
(1.00264 0.0468347 2.5282e-19)
(1.00369 0.0388731 -2.43526e-19)
(1.00395 0.0312269 1.18225e-19)
(1.00357 0.0238062 -6.28226e-22)
(1.00202 0.0168563 2.24648e-21)
(0.99762 0.0114212 3.15305e-19)
(0.993007 0.00832853 7.27344e-20)
(0.587036 0.20039 8.32059e-20)
(0.663265 0.184383 -7.47882e-19)
(0.725071 0.172067 -3.2951e-19)
(0.775532 0.161252 3.74707e-19)
(0.816793 0.151219 -3.23446e-19)
(0.850797 0.141504 2.84595e-19)
(0.878969 0.131942 -1.21922e-19)
(0.902451 0.122532 2.29022e-19)
(0.922111 0.11332 -3.12013e-19)
(0.938611 0.104343 7.25984e-21)
(0.952449 0.0956093 3.58655e-19)
(0.96401 0.0870992 -1.6748e-19)
(0.973589 0.0787807 1.60534e-19)
(0.981423 0.0706247 -1.50965e-19)
(0.987711 0.062626 1.46158e-19)
(0.992628 0.0548155 -2.79012e-19)
(0.99633 0.0472524 -4.00796e-19)
(0.998957 0.0399984 1.3125e-19)
(1.00064 0.0330817 1.23303e-19)
(1.00156 0.0264626 0)
(1.00183 0.0200689 -1.14466e-19)
(1.00101 0.0140551 1.1381e-19)
(0.997802 0.00911964 5.82941e-22)
(0.994404 0.00614219 -2.88821e-19)
(0.58297 0.163435 -1.7367e-19)
(0.660048 0.14945 8.82335e-19)
(0.721486 0.140212 4.38216e-19)
(0.771304 0.132478 -4.72077e-19)
(0.811887 0.125227 4.85897e-19)
(0.845374 0.117937 -2.8478e-19)
(0.873207 0.110487 -2.54368e-19)
(0.896515 0.10294 -1.13797e-19)
(0.916141 0.0953997 1.07259e-19)
(0.932717 0.0879464 -1.93926e-19)
(0.946721 0.0806216 1.80088e-19)
(0.958519 0.0734335 -3.4226e-19)
(0.968397 0.0663711 -1.60923e-19)
(0.976582 0.0594229 2.33074e-19)
(0.983268 0.0525976 0)
(0.988623 0.0459342 1.41136e-19)
(0.992798 0.0394934 6.87486e-20)
(0.99593 0.0333318 6.61523e-20)
(0.998152 0.0274743 0)
(0.999619 0.0218934 0)
(1.00043 0.0165386 2.35105e-19)
(1.00023 0.0115118 -4.55585e-19)
(0.998117 0.00726339 -3.16428e-22)
(0.995625 0.00429707 1.971e-19)
(0.580063 0.125614 2.68267e-19)
(0.65874 0.11441 4.6732e-21)
(0.719883 0.108691 5.8172e-20)
(0.768969 0.104229 0)
(0.808746 0.0997595 8.70621e-24)
(0.841594 0.0948163 -1.40761e-19)
(0.868986 0.0893833 1.28843e-19)
(0.892033 0.0836134 -1.18454e-19)
(0.911544 0.0776771 -1.06813e-19)
(0.928119 0.0716997 0)
(0.942212 0.0657547 9.00242e-20)
(0.95417 0.059875 -8.77661e-20)
(0.964266 0.0540689 0)
(0.972721 0.0483397 -2.33722e-19)
(0.979718 0.0427053 1.39905e-21)
(0.985418 0.0372076 1.44822e-19)
(0.989969 0.0319038 -2.76785e-19)
(0.993502 0.0268439 6.74748e-20)
(0.996148 0.0220498 -2.56132e-19)
(0.998049 0.0175048 4.94377e-19)
(0.999289 0.0131753 -2.9843e-19)
(0.999628 0.00912722 -2.30773e-19)
(0.998498 0.00565742 3.90495e-19)
(0.996827 0.00284597 -2.01042e-19)
(0.578934 0.0864072 1.33123e-19)
(0.659759 0.0791956 -4.16395e-19)
(0.720413 0.077603 2.81003e-19)
(0.76851 0.0766347 0)
(0.807283 0.0749318 7.91526e-20)
(0.839346 0.0722355 -7.35296e-20)
(0.866194 0.0687062 -9.60883e-23)
(0.8889 0.0646173 0)
(0.908226 0.0602111 1.07038e-19)
(0.924732 0.0556568 -9.93999e-20)
(0.938845 0.0510571 9.24053e-20)
(0.950893 0.0464667 -8.70065e-20)
(0.961136 0.0419105 0)
(0.969783 0.0374036 7.93257e-20)
(0.97701 0.0329688 7.60664e-20)
(0.982972 0.0286457 0)
(0.987807 0.024484 6.97633e-20)
(0.991646 0.0205247 -2.02014e-19)
(0.994614 0.0167868 1.2995e-19)
(0.996841 0.0132601 0)
(0.998405 0.00991943 5.9877e-20)
(0.999178 0.00679406 0)
(0.998842 0.00406501 5.61523e-20)
(0.997998 0.00183013 -1.99548e-19)
(0.580538 0.0451425 -9.17999e-20)
(0.663626 0.0438777 1.03203e-19)
(0.723221 0.0471886 -3.36278e-19)
(0.76987 0.0498925 -4.48827e-20)
(0.807367 0.0508855 -1.62684e-19)
(0.83849 0.050287 -7.17334e-20)
(0.864703 0.0485201 1.30132e-19)
(0.887003 0.0460009 5.96449e-20)
(0.906087 0.043043 0)
(0.922471 0.0398537 8.28506e-22)
(0.936547 0.03656 9.41546e-20)
(0.948624 0.0332341 0)
(0.958947 0.0299148 -4.17535e-20)
(0.967717 0.0266252 -7.94931e-20)
(0.975101 0.0233896 -7.62172e-20)
(0.981244 0.0202411 0)
(0.986282 0.0172184 0)
(0.990341 0.0143533 6.76566e-20)
(0.993543 0.0116618 0)
(0.996002 0.00914051 -1.25525e-19)
(0.997799 0.00677334 1.21313e-19)
(0.998891 0.00456977 -1.17062e-19)
(0.999138 0.00263142 1.41635e-19)
(0.998922 0.00106164 1.0087e-19)
(0.586306 0.000573834 2.21126e-20)
(0.67096 0.00872957 -5.33445e-20)
(0.728372 0.0178853 -2.87876e-20)
(0.772902 0.0242871 4.72524e-20)
(0.808804 0.0277699 -3.96452e-20)
(0.838853 0.029046 3.74868e-20)
(0.864368 0.0288662 -9.58493e-20)
(0.886222 0.0277912 5.05991e-22)
(0.905029 0.0261937 -8.03079e-20)
(0.92125 0.0243079 1.04415e-21)
(0.935243 0.0222773 9.35811e-20)
(0.947297 0.0201868 -4.44297e-20)
(0.957643 0.0180852 4.18215e-20)
(0.966471 0.0160014 -3.98217e-20)
(0.973942 0.0139574 3.85416e-20)
(0.980194 0.0119771 0)
(0.985356 0.010086 -7.06744e-20)
(0.989552 0.00830614 8.53645e-20)
(0.992899 0.00665085 0)
(0.995503 0.00512261 0)
(0.997443 0.00371523 1.52136e-20)
(0.998738 0.00243213 -5.87262e-20)
(0.99937 0.00132847 -7.09535e-20)
(0.999565 0.00048385 1.01825e-19)
(0.598404 -0.0498669 0)
(0.682479 -0.0253682 6.95527e-20)
(0.735721 -0.0095758 -1.33416e-20)
(0.777285 0.000149942 5.67615e-20)
(0.811316 0.00570029 9.86309e-21)
(0.840224 0.00854352 2.67587e-20)
(0.86503 0.00974741 3.23063e-20)
(0.886435 0.00998373 2.94015e-20)
(0.904953 0.00965766 4.03486e-20)
(0.920988 0.00901436 -1.26414e-20)
(0.934866 0.00820374 0)
(0.946855 0.00731779 -2.19096e-20)
(0.957172 0.00641179 2.10825e-20)
(0.966001 0.00551765 0)
(0.973493 0.00465354 -5.99288e-22)
(0.979782 0.00383177 5.75887e-22)
(0.984993 0.00306355 -1.71344e-20)
(0.989245 0.00236029 -3.398e-20)
(0.992652 0.00173233 3.33905e-20)
(0.995316 0.00118687 3.15483e-20)
(0.997315 0.00072772 -1.52736e-20)
(0.998704 0.000361576 -5.87135e-20)
(0.999517 0.000118025 1.42025e-20)
(0.999909 2.45156e-05 3.97538e-22)
(0.624667 -0.100265 0)
(0.698807 -0.0554336 0)
(0.744634 -0.0342353 0)
(0.782436 -0.0222682 4.66312e-20)
(0.814533 -0.0153 0)
(0.842368 -0.0112545 0)
(0.866528 -0.00887379 1.58407e-20)
(0.887523 -0.00745122 -1.48413e-20)
(0.905768 -0.00658679 0)
(0.921613 -0.00604386 0)
(0.935357 -0.00567595 1.16888e-20)
(0.947247 -0.00538938 1.1085e-20)
(0.957493 -0.00512493 0)
(0.966268 -0.00484905 0)
(0.973721 -0.0045483 5.99324e-22)
(0.97998 -0.00422267 1.77914e-20)
(0.985166 -0.00387646 1.71075e-20)
(0.989395 -0.00351013 1.6985e-20)
(0.992781 -0.00311746 3.2178e-20)
(0.995421 -0.00268748 1.57049e-20)
(0.997398 -0.00220641 -3.04354e-20)
(0.998769 -0.00166025 2.93416e-20)
(0.999577 -0.00104775 -1.42234e-20)
(0.99994 -0.000387642 -3.97531e-22)
(0.0364222 -0.036225 -2.8256e-19)
(0.162969 -0.0635341 3.81229e-19)
(0.372316 -0.0768224 1.34831e-19)
(0.492016 -0.0860075 1.85893e-19)
(0.596166 -0.0939914 6.3841e-20)
(0.682447 -0.118343 3.34951e-20)
(0.100224 -0.0666062 -2.8233e-20)
(0.264687 -0.0960146 4.16888e-19)
(0.448137 -0.10417 -3.32466e-20)
(0.542705 -0.110718 -1.52524e-19)
(0.628943 -0.111781 -4.13216e-20)
(0.680678 -0.117196 2.58715e-19)
(0.130247 -0.0775004 -8.52205e-19)
(0.307019 -0.126759 -1.32685e-18)
(0.471678 -0.133238 -6.12964e-20)
(0.556782 -0.137878 4.36867e-19)
(0.630164 -0.137407 0)
(0.676029 -0.137374 -5.57936e-19)
(0.156744 -0.0920269 9.38038e-19)
(0.339509 -0.153021 5.89164e-19)
(0.481832 -0.162078 0)
(0.560993 -0.163812 -8.17769e-19)
(0.626377 -0.161851 4.34236e-19)
(0.669781 -0.158092 -6.02544e-20)
(0.189182 -0.126206 2.90462e-20)
(0.362713 -0.177944 1.12779e-18)
(0.486444 -0.189686 5.73374e-20)
(0.561023 -0.189267 3.43367e-19)
(0.621024 -0.185941 -2.71912e-19)
(0.663173 -0.179212 2.22543e-19)
(0.214085 -0.14728 0)
(0.378642 -0.200841 -1.14682e-18)
(0.48783 -0.215614 -8.61949e-19)
(0.55852 -0.21437 0)
(0.614946 -0.210312 -5.22182e-19)
(0.65679 -0.201758 4.30494e-19)
(0.23536 -0.16682 -5.67882e-20)
(0.389174 -0.221382 1.13736e-18)
(0.486771 -0.240039 1.7495e-18)
(0.554197 -0.239415 -8.01666e-20)
(0.608418 -0.235335 6.28184e-19)
(0.650766 -0.225902 -5.27838e-19)
(0.253997 -0.185359 1.78684e-18)
(0.395414 -0.239829 -9.98888e-19)
(0.483641 -0.263288 -4.97926e-20)
(0.548425 -0.264655 0)
(0.601529 -0.261294 4.90769e-19)
(0.64508 -0.251764 0)
(0.269703 -0.201785 -1.80853e-18)
(0.397907 -0.256539 0)
(0.478588 -0.285665 -7.67419e-19)
(0.541366 -0.290284 0)
(0.594276 -0.288462 -6.00606e-19)
(0.639656 -0.27951 2.03855e-19)
(0.281999 -0.215406 2.81151e-20)
(0.396924 -0.271802 9.52361e-19)
(0.471639 -0.307395 -4.45948e-20)
(0.533053 -0.316472 2.61077e-21)
(0.586573 -0.317083 -4.13256e-19)
(0.634371 -0.309326 -9.87169e-20)
(0.290491 -0.226034 -1.711e-18)
(0.392637 -0.285855 -1.00023e-18)
(0.462757 -0.328669 -1.36694e-19)
(0.523424 -0.343332 6.48022e-19)
(0.578268 -0.347344 5.85414e-19)
(0.629078 -0.341436 -1.02021e-19)
(0.294838 -0.233727 3.72801e-18)
(0.385221 -0.298894 -1.23319e-19)
(0.451844 -0.349661 1.34965e-19)
(0.512347 -0.370929 -5.03122e-19)
(0.569166 -0.379409 2.31433e-19)
(0.623608 -0.376087 4.94579e-19)
(0.294617 -0.238638 -1.76621e-18)
(0.374905 -0.311067 0)
(0.43877 -0.370458 0)
(0.499631 -0.399308 -5.66245e-19)
(0.55902 -0.413403 -4.64112e-19)
(0.617773 -0.413544 -7.83389e-19)
(0.289525 -0.241172 0)
(0.361732 -0.322407 -9.45162e-19)
(0.423444 -0.391089 -7.67583e-19)
(0.485014 -0.428466 6.25438e-22)
(0.547528 -0.44941 -4.59492e-19)
(0.611349 -0.454087 3.90726e-19)
(0.279517 -0.241632 1.87087e-18)
(0.345653 -0.332867 9.88418e-19)
(0.405778 -0.411494 -9.09427e-20)
(0.468204 -0.458297 1.27872e-18)
(0.534313 -0.487449 8.6095e-19)
(0.604046 -0.498006 9.29242e-20)
(0.264621 -0.240222 9.85408e-21)
(0.326815 -0.342362 -1.05308e-18)
(0.385677 -0.431438 1.47611e-18)
(0.448895 -0.488555 -1.14731e-18)
(0.518923 -0.52741 -3.51165e-21)
(0.59548 -0.545563 0)
(0.245025 -0.237046 -3.58356e-18)
(0.305381 -0.350562 1.04645e-18)
(0.363067 -0.450469 -7.53052e-19)
(0.426758 -0.518765 -1.45861e-23)
(0.500812 -0.568946 -4.64084e-19)
(0.58516 -0.596866 0)
(0.221177 -0.231925 3.70062e-18)
(0.281547 -0.356793 1.1273e-18)
(0.337964 -0.467738 -4.72673e-20)
(0.401424 -0.548111 3.79178e-20)
(0.479324 -0.611325 -5.55134e-20)
(0.572393 -0.65167 -3.86624e-20)
(0.193867 -0.223995 -1.86254e-18)
(0.255488 -0.35984 -1.09446e-18)
(0.310332 -0.481923 3.51854e-19)
(0.372441 -0.575285 5.377e-19)
(0.453578 -0.653247 1.17832e-19)
(0.556099 -0.709434 -2.30655e-19)
(0.164164 -0.211147 0)
(0.227234 -0.357784 -3.72706e-20)
(0.28001 -0.490983 -3.92599e-19)
(0.339248 -0.598298 3.77399e-20)
(0.422264 -0.692615 -3.1873e-20)
(0.53445 -0.769389 1.44573e-19)
(0.132994 -0.190161 -4.77425e-19)
(0.196489 -0.347751 0)
(0.246815 -0.491858 2.22813e-19)
(0.301269 -0.614768 2.07164e-19)
(0.383985 -0.725876 -3.32265e-20)
(0.504574 -0.830612 4.01356e-20)
(0.102453 -0.159029 2.41659e-19)
(0.163605 -0.326174 0)
(0.210985 -0.480515 -2.37813e-19)
(0.258555 -0.622117 -8.86853e-20)
(0.337894 -0.74788 0)
(0.462416 -0.893624 0)
(0.0760136 -0.117828 2.60182e-19)
(0.130082 -0.287698 -1.69346e-20)
(0.174697 -0.449633 -7.96855e-21)
(0.212676 -0.617579 -8.62974e-20)
(0.284526 -0.747768 0)
(0.394254 -0.967444 0)
(0.053001 -0.0540437 -4.12801e-21)
(0.0877734 -0.198786 1.49768e-20)
(0.123132 -0.361301 1.43552e-19)
(0.146588 -0.584346 -6.85347e-21)
(0.186102 -0.682006 8.95001e-21)
(0.284815 -1.0681 -3.5293e-21)
(0.68585 -0.133538 0)
(0.716614 -0.0782178 0)
(0.753353 -0.0557531 -2.57975e-20)
(0.787522 -0.0430766 -8.95691e-20)
(0.818057 -0.0353944 -2.01515e-20)
(0.845055 -0.0304811 0)
(0.868718 -0.0270951 3.15454e-20)
(0.889389 -0.0245853 -2.95427e-20)
(0.907403 -0.0225937 5.30585e-20)
(0.923074 -0.0209088 -5.02215e-20)
(0.936676 -0.0193958 -1.15719e-19)
(0.948445 -0.0179641 -8.658e-20)
(0.958581 -0.0165529 1.25091e-19)
(0.967254 -0.0151275 -3.70274e-22)
(0.974608 -0.0136785 -3.8277e-20)
(0.98077 -0.0122175 -1.83565e-20)
(0.985859 -0.0107648 -1.76523e-20)
(0.98999 -0.00933413 -1.69786e-20)
(0.993272 -0.00792546 -1.63368e-20)
(0.995809 -0.00652545 0)
(0.997684 -0.00511124 0)
(0.998933 -0.00366477 0)
(0.999538 -0.00221279 -1.41632e-20)
(0.99966 -0.000824811 0)
(0.700324 -0.131927 -3.49301e-19)
(0.725803 -0.0956106 3.13949e-20)
(0.759622 -0.075191 0)
(0.791917 -0.0628976 8.95171e-20)
(0.821626 -0.0549424 -1.56125e-19)
(0.848148 -0.0493546 2.09102e-19)
(0.871512 -0.0450616 6.19367e-20)
(0.891969 -0.0415217 0)
(0.909813 -0.0384399 -5.32941e-20)
(0.925334 -0.0356393 -4.99091e-20)
(0.938795 -0.0330024 1.38009e-19)
(0.950424 -0.0304448 -4.39774e-20)
(0.960418 -0.0279061 -2.14655e-23)
(0.968943 -0.0253505 -7.92402e-20)
(0.976144 -0.0227708 0)
(0.982147 -0.0201876 0)
(0.987071 -0.0176359 0)
(0.991028 -0.0151444 -6.6952e-20)
(0.994128 -0.0127218 -6.44411e-20)
(0.996481 -0.0103538 0)
(0.998176 -0.00800959 0)
(0.999199 -0.00567474 -5.78072e-20)
(0.999407 -0.00342372 0)
(0.999079 -0.00135976 1.00168e-19)
(0.703111 -0.138902 4.13587e-19)
(0.730002 -0.111998 -1.91852e-21)
(0.763671 -0.0941478 -5.15589e-20)
(0.795651 -0.0825028 0)
(0.825216 -0.0743495 1.56772e-19)
(0.85162 -0.0681116 -1.40374e-19)
(0.874886 -0.0629252 -1.26895e-19)
(0.895244 -0.0583648 6.16458e-22)
(0.912979 -0.0542005 2.13351e-19)
(0.928379 -0.050292 0)
(0.941703 -0.0465407 0)
(0.953178 -0.0428699 0)
(0.963001 -0.0392199 8.211e-20)
(0.971338 -0.0355529 2.32894e-19)
(0.978334 -0.0318612 -1.5018e-19)
(0.984118 -0.0281706 0)
(0.988808 -0.024528 -6.8753e-20)
(0.992518 -0.0209777 6.68711e-20)
(0.995358 -0.0175397 6.43841e-20)
(0.997447 -0.0142007 1.23329e-19)
(0.998881 -0.0109234 -2.38243e-19)
(0.99957 -0.00771193 1.15692e-19)
(0.999195 -0.00472157 -2.23002e-19)
(0.998216 -0.00206388 2.00304e-19)
(0.701393 -0.152417 7.08681e-20)
(0.731769 -0.129851 -5.99072e-20)
(0.766493 -0.113709 0)
(0.799078 -0.102435 0)
(0.828966 -0.0939348 1.53707e-19)