/*--------------------------------*- C++ -*----------------------------------*\
  =========                 |
  \\      /  F ield         | OpenFOAM: The Open Source CFD Toolbox
   \\    /   O peration     | Website:  https://openfoam.org
    \\  /    A nd           | Version:  11
     \\/     M anipulation  |
\*---------------------------------------------------------------------------*/
FoamFile
{
    format      ascii;
    class       volScalarField;
    location    "0.68";
    object      k;
}
// * * * * * * * * * * * * * * * * * * * * * * * * * * * * * * * * * * * * * //

dimensions      [0 2 -2 0 0 0 0];

internalField   nonuniform List<scalar> 
2880
(
0.00605541
0.0246616
0.0675028
0.116272
0.152135
0.142512
0.0190134
0.0493123
0.0979958
0.148489
0.197054
0.231382
0.0250576
0.0654149
0.115068
0.167001
0.215586
0.242591
0.0285572
0.0758621
0.125474
0.176792
0.220283
0.238819
0.0322828
0.0830436
0.132108
0.181575
0.219657
0.228926
0.0354021
0.0880408
0.136229
0.18332
0.216072
0.218214
0.0378396
0.0914019
0.13853
0.183281
0.211493
0.20896
0.0396302
0.0934311
0.139447
0.182255
0.206991
0.201418
0.0408253
0.0942985
0.139248
0.180694
0.203035
0.195379
0.041471
0.0941066
0.138088
0.178813
0.199672
0.190668
0.0416013
0.0928854
0.136044
0.176685
0.196771
0.187155
0.0412507
0.0906701
0.133131
0.17425
0.194197
0.18476
0.0405004
0.087474
0.129323
0.171356
0.191893
0.183358
0.0394503
0.0833244
0.124573
0.167815
0.189752
0.182907
0.0380771
0.078296
0.118827
0.163365
0.187596
0.183204
0.036368
0.072472
0.112022
0.157657
0.185212
0.184169
0.034309
0.0659473
0.104088
0.150214
0.182335
0.185525
0.031862
0.0588364
0.0949857
0.140537
0.178274
0.187084
0.0289145
0.0512897
0.0847285
0.128255
0.171893
0.188423
0.0250836
0.0435651
0.0734612
0.113161
0.16167
0.188917
0.023032
0.0363107
0.0614564
0.095189
0.145272
0.187957
0.0211498
0.0296686
0.0489795
0.0745205
0.120981
0.179356
0.0174007
0.0220907
0.0349717
0.0515986
0.0868639
0.150013
0.00498373
0.00772293
0.0139053
0.0233682
0.0422447
0.121673
0.198961
0.182555
0.154743
0.129648
0.108715
0.0916825
0.0778136
0.0664571
0.0571568
0.0495952
0.0435173
0.0386901
0.0349004
0.0319637
0.0297318
0.0280981
0.0269971
0.0263979
0.0262915
0.0265759
0.0273129
0.0284818
0.0300886
0.0321026
0.221582
0.183755
0.148308
0.121157
0.100245
0.0837699
0.0705126
0.0597684
0.0511091
0.0442094
0.0387767
0.0345402
0.0312612
0.0287421
0.0268319
0.0254259
0.0244614
0.0239101
0.0237663
0.0239769
0.0245688
0.0255506
0.0269432
0.0287193
0.223443
0.176165
0.139495
0.112788
0.0926227
0.076781
0.0640976
0.0539591
0.045948
0.0396968
0.034862
0.0311379
0.028271
0.0260641
0.0243733
0.0231012
0.0221896
0.0216122
0.021366
0.0214423
0.0218276
0.0225737
0.023721
0.025261
0.21458
0.166322
0.130854
0.105267
0.0858467
0.0705582
0.0584369
0.0489253
0.0415648
0.0359237
0.0316129
0.028309
0.0257605
0.0237807
0.0222363
0.0210369
0.0201267
0.0194792
0.0190918
0.0189765
0.0191273
0.0195872
0.0204585
0.021761
0.202191
0.156512
0.123063
0.0985913
0.0797827
0.0650071
0.0534683
0.044597
0.03786
0.032764
0.0288933
0.0259245
0.0236183
0.0218021
0.0203536
0.0191883
0.0182513
0.0175127
0.0169658
0.0166221
0.0165048
0.0166497
0.0171892
0.0182389
0.190211
0.14779
0.116284
0.0926772
0.0743557
0.0600829
0.0491429
0.0408983
0.0347319
0.030105
0.0265941
0.0238878
0.021764
0.0200655
0.0186804
0.0175293
0.0165566
0.0157269
0.0150241
0.0144514
0.0140305
0.0138204
0.0139734
0.0147046
0.179891
0.140505
0.110482
0.0874496
0.0695237
0.0557523
0.0454078
0.0377506
0.0320868
0.0278516
0.024629
0.0221264
0.0201405
0.0185289
0.0171892
0.0160466
0.0150452
0.0141437
0.0133139
0.0125429
0.0118368
0.0112407
0.010898
0.0111308
0.171714
0.134639
0.105553
0.0828483
0.0652568
0.0519791
0.0422043
0.0350768
0.029842
0.0259271
0.0229327
0.0205881
0.0187082
0.017164
0.015862
0.0147323
0.0137202
0.0127815
0.0118788
0.0109812
0.0100667
0.00913424
0.00814261
0.00663206
0.165567
0.130034
0.101399
0.0788327
0.0615279
0.048722
0.0394713
0.0328061
0.0279285
0.0242709
0.0214557
0.0192338
0.0174372
0.0159487
0.0146829
0.0135756
0.0125758
0.0116412
0.0107344
0.00981899
0.00885552
0.00781041
0.00668556
0.00524797
0.161164
0.126521
0.0979486
0.0753728
0.0583077
0.0459352
0.0371498
0.0308766
0.0262899
0.0228357
0.0201596
0.0180331
0.016303
0.0148621
0.0136327
0.0125559
0.0115852
0.0106832
0.00981786
0.00895886
0.00807327
0.00713213
0.00613008
0.00494175
0.158263
0.123973
0.0951543
0.0724446
0.0555639
0.0435725
0.0351862
0.0292365
0.0248815
0.0215847
0.0190149
0.0169615
0.0152841
0.0138841
0.0126895
0.0116457
0.0107102
0.00984863
0.00903273
0.0082361
0.00743039
0.0065939
0.00573298
0.00476745
0.156681
0.122315
0.0929902
0.0700266
0.0532628
0.0415897
0.0335339
0.0278435
0.0236679
0.0204895
0.0179984
0.0159999
0.0143637
0.0129981
0.0118353
0.0108242
0.00992449
0.00910454
0.00833837
0.00760251
0.00687253
0.00613269
0.00539506
0.00460642
0.156298
0.121485
0.0914425
0.0680984
0.0513716
0.0399479
0.0321546
0.0266641
0.0226216
0.0195282
0.0170928
0.0151338
0.0135291
0.012192
0.0110581
0.0100782
0.00921415
0.00843567
0.00771865
0.00704185
0.00638406
0.00573386
0.00510498
0.00446071
0.157021
0.121486
0.0905177
0.0666426
0.0498613
0.0386137
0.0310165
0.0256711
0.0217209
0.0186837
0.0162845
0.0143522
0.012771
0.0114576
0.0103499
0.00940005
0.00857099
0.00783363
0.00716508
0.00654569
0.00595669
0.00538931
0.00485649
0.00433254
0.158853
0.122388
0.0902075
0.0656444
0.0487061
0.0375588
0.0300934
0.024843
0.020949
0.0179431
0.0155635
0.0136471
0.0120825
0.0107889
0.0097051
0.00878423
0.00798969
0.00729304
0.00667214
0.00610837
0.00558456
0.00509321
0.00464501
0.00422174
0.161823
0.124202
0.0904232
0.0650968
0.0478841
0.0367589
0.029364
0.0241624
0.0202922
0.0172962
0.0149219
0.0130122
0.0114586
0.0101813
0.00911963
0.00822676
0.00746621
0.00680976
0.00623555
0.00572542
0.00526301
0.00484098
0.00446687
0.00412749
0.166002
0.127041
0.0915004
0.0649978
0.0473761
0.0361937
0.0288105
0.0236151
0.0197401
0.0167348
0.0143534
0.0124426
0.0108951
0.00963125
0.00859005
0.00772423
0.00699704
0.0063801
0.00585142
0.00539275
0.00498776
0.00462835
0.00431851
0.00404839
0.171471
0.131001
0.093177
0.0652054
0.0471589
0.0358456
0.0284175
0.0231894
0.0192837
0.0162523
0.0138531
0.0119343
0.0103887
0.00913576
0.00811343
0.00727361
0.00657897
0.00600064
0.00551605
0.00510634
0.00475455
0.0044511
0.00419635
0.00398279
0.178328
0.136248
0.095567
0.0657847
0.0472078
0.0356971
0.0281706
0.0228747
0.0189154
0.0158433
0.0134167
0.011484
0.00993661
0.00869217
0.0076871
0.0068721
0.00620895
0.00566801
0.00522575
0.00486214
0.00455905
0.00430495
0.00409687
0.00392899
0.186673
0.142943
0.0987028
0.0668613
0.0474558
0.03572
0.0280554
0.022661
0.0186283
0.0155027
0.0130407
0.0110889
0.00953632
0.0082981
0.00730859
0.006517
0.00588402
0.00537888
0.00497675
0.00465598
0.00439684
0.00418572
0.00401677
0.00388542
0.196597
0.151267
0.102525
0.0682579
0.0478957
0.0358628
0.0280561
0.0225384
0.018416
0.0152262
0.0127218
0.0107464
0.00918559
0.00795134
0.00697556
0.00620575
0.00560125
0.00512992
0.00476524
0.00448361
0.00426355
0.00408946
0.00395311
0.00385071
0.208912
0.161362
0.106868
0.0698309
0.0484949
0.0361211
0.0281379
0.0224963
0.0182719
0.0150096
0.0124572
0.0104544
0.00888246
0.00764986
0.00668578
0.00593582
0.00535776
0.00491783
0.00458742
0.00434083
0.00415489
0.00401244
0.00390327
0.00382369
0.224777
0.172984
0.110844
0.0714132
0.0492033
0.036475
0.0282955
0.0225216
0.0181902
0.0148496
0.0122448
0.0102112
0.00862534
0.00739187
0.00643714
0.0057047
0.00515066
0.00473926
0.00443957
0.00422361
0.00406678
0.00395094
0.00386472
0.00380307
0.245365
0.183441
0.114033
0.0728649
0.0499604
0.0368963
0.0285155
0.0226011
0.0181659
0.0147432
0.0120831
0.0100157
0.00841321
0.00717605
0.00622782
0.00551007
0.00497706
0.0045909
0.00431807
0.00412829
0.0039957
0.00390166
0.00383465
0.0037872
0.00687509
0.0326815
0.0783419
0.125776
0.15036
0.137762
0.021672
0.0628042
0.106697
0.150995
0.189289
0.238614
0.031282
0.0836743
0.126776
0.168907
0.208515
0.248238
0.0388249
0.0977007
0.140567
0.180944
0.217448
0.245415
0.0451155
0.10797
0.150712
0.189412
0.221724
0.241084
0.0503322
0.115773
0.158451
0.19569
0.224062
0.237462
0.0546005
0.121775
0.164457
0.200528
0.225687
0.235054
0.058012
0.126347
0.16913
0.204354
0.227252
0.233971
0.0606318
0.129707
0.172727
0.207478
0.229077
0.234218
0.0625033
0.131985
0.17541
0.210103
0.231322
0.235773
0.0636538
0.13325
0.177273
0.212343
0.234056
0.238667
0.0641155
0.133523
0.178347
0.214237
0.237265
0.242864
0.0640675
0.132774
0.178612
0.215753
0.240863
0.248335
0.0635309
0.130975
0.177996
0.216794
0.24469
0.255035
0.0624323
0.128107
0.176374
0.217189
0.248509
0.262861
0.0606885
0.124124
0.173582
0.216655
0.252052
0.271599
0.0582148
0.118964
0.169424
0.214825
0.254896
0.280949
0.0549216
0.112571
0.163688
0.211257
0.256393
0.290473
0.0507067
0.104899
0.156157
0.205418
0.255739
0.299503
0.0454596
0.0958878
0.146574
0.196628
0.25155
0.307042
0.0390817
0.0853732
0.134512
0.183944
0.241961
0.311454
0.0315142
0.0727848
0.118987
0.165843
0.224108
0.309463
0.0222017
0.0559147
0.0970998
0.139255
0.193388
0.289065
0.00652027
0.0245054
0.0570795
0.0948864
0.147629
0.176149
0.264314
0.189318
0.116283
0.0741037
0.0507077
0.0373562
0.0287841
0.0227307
0.0181921
0.0146888
0.0119716
0.00986812
0.00824593
0.00700186
0.00605677
0.00535021
0.00483463
0.00446989
0.00421987
0.00405204
0.00393935
0.00386272
0.00381074
0.00377483
0.268382
0.18894
0.117124
0.0749988
0.0513991
0.0378309
0.0290893
0.022905
0.018265
0.0146871
0.0119115
0.00976939
0.00812437
0.00686975
0.00592383
0.00522432
0.00472188
0.00437415
0.00414249
0.00399236
0.00389568
0.00383291
0.00379236
0.00376579
0.258206
0.183683
0.116635
0.0755378
0.0520156
0.0383093
0.0294245
0.0231223
0.0183862
0.0147341
0.0119048
0.00972175
0.00805031
0.00678085
0.0058295
0.00513219
0.00463789
0.00430215
0.00408404
0.0039472
0.0038627
0.00381062
0.00377893
0.00375962
0.245437
0.177557
0.115519
0.0758661
0.0525888
0.0388003
0.0298019
0.0233893
0.018559
0.0148339
0.0119499
0.00972744
0.00802617
0.00673674
0.00577459
0.00507384
0.00458194
0.00425263
0.00404293
0.00391494
0.00383894
0.00379461
0.00376949
0.00375557
0.234253
0.172169
0.114442
0.0761755
0.0531818
0.0393525
0.0302559
0.0237369
0.0188064
0.0149967
0.0120499
0.00978304
0.00805053
0.00673886
0.00576032
0.00504966
0.00455365
0.00422472
0.00401806
0.00389441
0.0038233
0.00378393
0.00376332
0.00375306
0.225805
0.168142
0.113775
0.0766354
0.0538763
0.0400091
0.0308043
0.0241746
0.0191419
0.0152448
0.0122264
0.00990263
0.00812691
0.00678358
0.00578375
0.00505865
0.00455306
0.00421825
0.00400898
0.00388503
0.00381503
0.003778
0.00375995
0.0037518
0.220095
0.165667
0.113746
0.0773805
0.0547756
0.0408022
0.0314606
0.0247062
0.0195645
0.0155749
0.0124802
0.0100946
0.00826934
0.00688662
0.00585535
0.00510571
0.00458174
0.00423402
0.00401623
0.0038872
0.00381464
0.00377692
0.00375896
0.00375139
0.216881
0.164763
0.114456
0.0785819
0.0559215
0.0417474
0.0322275
0.0253309
0.0200712
0.0159827
0.0128057
0.0103518
0.00847026
0.00704119
0.00597177
0.00519076
0.0046413
0.00427356
0.00404093
0.00390162
0.00382233
0.00378039
0.00376023
0.00375162
0.215941
0.16543
0.116088
0.0802744
0.0573353
0.0428645
0.0331216
0.02606
0.0206704
0.016475
0.0132085
0.0106793
0.0087342
0.00725152
0.00613662
0.00531676
0.0047342
0.00433905
0.00408494
0.00392983
0.00383947
0.00378941
0.00376425
0.00375262
0.217062
0.167669
0.118675
0.0825176
0.059071
0.0441866
0.0341624
0.0269064
0.021371
0.0170586
0.0136943
0.0110818
0.00906557
0.0075217
0.00635375
0.00548736
0.00486394
0.0044337
0.00415094
0.00397378
0.00386716
0.00380538
0.00377172
0.00375484
0.220191
0.171523
0.122317
0.0853959
0.0611836
0.0457463
0.0353689
0.0278818
0.0221814
0.0177398
0.0142684
0.0115645
0.0094691
0.00785629
0.00662757
0.00570692
0.00503477
0.00456153
0.00424247
0.00403633
0.00390754
0.00382926
0.00378387
0.00375907
0.225272
0.177068
0.127125
0.0890008
0.0637325
0.0475783
0.036761
0.0289982
0.0231092
0.0185245
0.0149358
0.0121319
0.00994951
0.00826003
0.0069629
0.00598034
0.0052517
0.00472751
0.00436417
0.00412148
0.00396381
0.00386347
0.00380208
0.00376592
0.232309
0.184414
0.133236
0.0934372
0.0667852
0.049721
0.0383599
0.0302673
0.0241617
0.0194179
0.0157012
0.0127886
0.0105114
0.00873773
0.00736482
0.00631297
0.00552034
0.00493735
0.00452157
0.00423417
0.00403996
0.00391092
0.00382819
0.00377633
0.241336
0.193693
0.140809
0.0988312
0.0704215
0.0522191
0.0401895
0.0317017
0.0253458
0.0204247
0.0165684
0.0135384
0.0111589
0.00929401
0.0078384
0.00671034
0.00584661
0.00519732
0.00472096
0.00438021
0.00414087
0.00397527
0.00386461
0.00379153
0.252393
0.205046
0.150019
0.105328
0.074735
0.0551246
0.0422767
0.0333149
0.0266685
0.0215487
0.0175402
0.0143842
0.0118953
0.00993289
0.00838832
0.00717774
0.00623639
0.00551378
0.00496898
0.00456613
0.00427238
0.0040611
0.00391406
0.00381278
0.265495
0.218611
0.161043
0.113085
0.0798313
0.0584971
0.0446516
0.0351212
0.0281363
0.022793
0.0186186
0.0153278
0.0127231
0.0106574
0.0090185
0.00771991
0.00669518
0.00589295
0.00527249
0.00479904
0.00444115
0.00417363
0.00397959
0.00384125
0.280599
0.234497
0.174037
0.122254
0.0858219
0.0624024
0.0473483
0.0371366
0.0297557
0.0241598
0.0198039
0.0163695
0.0136431
0.0114696
0.00973188
0.00834082
0.00722793
0.0063407
0.0056381
0.00508599
0.00465396
0.00431854
0.00406527
0.00387858
0.297536
0.252754
0.189097
0.132961
0.0928137
0.0669086
0.0504028
0.0393777
0.0315329
0.0256501
0.0210955
0.0175083
0.014655
0.0123698
0.0105302
0.00904347
0.00783883
0.00686226
0.00607198
0.0054338
0.00491783
0.00450221
0.0041759
0.00392679
0.315849
0.273389
0.206196
0.145263
0.100889
0.0720788
0.0538517
0.0418623
0.033474
0.0272645
0.0224914
0.0187418
0.0157566
0.0133572
0.0114138
0.00982957
0.00853087
0.00746182
0.00657936
0.00584861
0.00523946
0.00473128
0.00431687
0.00398813
0.335146
0.295784
0.225066
0.159091
0.110076
0.0779589
0.0577271
0.0446077
0.0355852
0.0290026
0.0239886
0.0200661
0.0169445
0.0144291
0.0123814
0.0106991
0.00930547
0.00814208
0.00716414
0.00633544
0.00562484
0.00501213
0.00449379
0.00406509
0.354568
0.318817
0.245091
0.174175
0.120307
0.0845577
0.0620494
0.0476275
0.037872
0.0308641
0.0255838
0.0214768
0.0182142
0.0155816
0.0134298
0.0116503
0.0101621
0.00890397
0.00782866
0.00689795
0.00607886
0.00535048
0.00471207
0.00416018
0.371909
0.340303
0.26522
0.189948
0.131363
0.09182
0.066816
0.0509272
0.0403379
0.032849
0.0272739
0.022969
0.01956
0.0168092
0.0145544
0.0126794
0.0110985
0.00974648
0.0085734
0.00753822
0.00660511
0.0057511
0.00497654
0.00427562
0.37965
0.357088
0.283916
0.205458
0.142805
0.0995895
0.0719857
0.0544995
0.0429825
0.0349563
0.0290558
0.024538
0.0209766
0.0181062
0.0157495
0.0137815
0.0121103
0.0106667
0.00939701
0.00825661
0.00720575
0.00621761
0.00529116
0.00441302
0.34446
0.359815
0.298678
0.219328
0.153952
0.107587
0.0774652
0.0583189
0.0458002
0.0371841
0.0309272
0.0261801
0.0224589
0.0194669
0.0170092
0.0149505
0.0131922
0.0116602
0.0102964
0.00905185
0.00788152
0.00675258
0.00565905
0.00457316
0.0112745
0.0164383
0.0197842
0.0212042
0.0220909
0.0440132
0.0296502
0.0402184
0.04377
0.0431522
0.0442426
0.0707316
0.0383703
0.0506362
0.0569008
0.0565257
0.0589382
0.0856436
0.0442072
0.059235
0.0676192
0.0675024
0.0708376
0.0975532
0.0483889
0.0672537
0.0770458
0.0773
0.0813058
0.107641
0.0516904
0.0747123
0.0855694
0.0863881
0.0909788
0.116718
0.0544677
0.0816408
0.0934189
0.0950474
0.100203
0.124549
0.0568657
0.0881248
0.10077
0.103491
0.109198
0.131571
0.0589509
0.0941826
0.107754
0.111883
0.118072
0.138311
0.0607633
0.099787
0.114447
0.120225
0.127046
0.145231
0.062334
0.104908
0.120884
0.128555
0.136334
0.152776
0.0636938
0.109483
0.127065
0.136908
0.146141
0.161389
0.0648312
0.113422
0.132947
0.14528
0.156537
0.171578
0.0652581
0.116822
0.138443
0.153605
0.167564
0.183726
0.0651074
0.119589
0.143393
0.161708
0.179099
0.19798
0.0641625
0.121531
0.147567
0.169271
0.190725
0.213774
0.0623831
0.122263
0.15066
0.175822
0.201683
0.229876
0.0596856
0.121717
0.152141
0.180739
0.210909
0.244524
0.0558986
0.119281
0.151859
0.18303
0.217034
0.255549
0.0509309
0.114333
0.149091
0.182291
0.218562
0.260375
0.0448106
0.105853
0.143126
0.177246
0.213955
0.256681
0.0368982
0.0925483
0.132915
0.166598
0.200905
0.241552
0.0263416
0.0716929
0.11643
0.14829
0.175729
0.208614
0.0106782
0.0445945
0.0922474
0.120118
0.133034
0.126925
0.281941
0.34961
0.304313
0.229852
0.164
0.115448
0.083117
0.0623421
0.0487802
0.0395305
0.0328869
0.0278933
0.0240037
0.0208869
0.0183283
0.016181
0.0143389
0.0127221
0.0112676
0.00992142
0.00863198
0.00735776
0.00608279
0.00475593
0.235048
0.326855
0.301587
0.236636
0.172441
0.122865
0.0887968
0.0665179
0.0519096
0.0419943
0.0349363
0.0296782
0.0256104
0.0223645
0.0197044
0.0174699
0.0155466
0.0138486
0.0123073
0.0108629
0.00945645
0.00803479
0.00656519
0.00496069
0.204405
0.302613
0.294685
0.240487
0.179188
0.12966
0.0943922
0.0707987
0.0551759
0.0445764
0.0370793
0.0315385
0.0272819
0.023902
0.0211391
0.0188187
0.0168168
0.0150408
0.0134164
0.0118775
0.0103569
0.00878748
0.00711131
0.00518718
0.185817
0.281107
0.282837
0.240539
0.184114
0.135724
0.0998301
0.0751487
0.0585697
0.0472796
0.0393221
0.0334808
0.0290244
0.0255056
0.0226396
0.0202357
0.0181595
0.0163105
0.0146077
0.0129784
0.0113467
0.00962987
0.00773533
0.00543887
0.175973
0.26266
0.270241
0.238485
0.187469
0.141031
0.105062
0.0795459
0.0620857
0.0501074
0.0416715
0.0355122
0.0308452
0.027184
0.0242171
0.0217368
0.0195966
0.0176868
0.0159182
0.0142096
0.0124751
0.0106146
0.00848998
0.00574446
0.17123
0.247143
0.257901
0.235261
0.189557
0.14561
0.110053
0.0839687
0.0657205
0.0530641
0.044133
0.0376374
0.0327488
0.0289425
0.0258809
0.0233383
0.021156
0.019215
0.0174175
0.0156725
0.0138823
0.011927
0.00961629
0.00641514
0.169851
0.234325
0.246236
0.230458
0.190709
0.149521
0.114783
0.0883955
0.0694676
0.0561505
0.0467084
0.0398557
0.0347307
0.0307747
0.0276246
0.0250381
0.0228467
0.0209266
0.0191795
0.0175185
0.0158604
0.0141445
0.0124494
0.011268
0.170553
0.223981
0.235461
0.22421
0.190598
0.152689
0.119212
0.0927982
0.0733161
0.0593653
0.0493957
0.0421592
0.0367755
0.0326571
0.0294176
0.0268003
0.0246318
0.0227933
0.021204
0.0198108
0.0185857
0.0175422
0.0168024
0.0166228
0.172221
0.215903
0.225786
0.217656
0.189718
0.155157
0.123298
0.0971421
0.0772507
0.0627044
0.0521914
0.044538
0.0388639
0.0345601
0.0312197
0.0285737
0.0264459
0.0247244
0.0233436
0.0222721
0.0215017
0.0210457
0.0209447
0.0211802
0.17479
0.209998
0.217399
0.211215
0.188275
0.157004
0.126986
0.10138
0.0812465
0.0661615
0.055095
0.046988
0.0409836
0.0364623
0.0330011
0.0303202
0.02824
0.0266505
0.0254894
0.0247227
0.0243274
0.024279
0.024528
0.0249577
0.178682
0.206329
0.210491
0.205285
0.186488
0.158316
0.130251
0.105462
0.0852739
0.0697296
0.0581115
0.0495149
0.0431345
0.0383549
0.0347427
0.0320083
0.0299654
0.0284984
0.0275354
0.0270252
0.0269176
0.0271343
0.0276106
0.0281457
0.18441
0.205541
0.205561
0.200255
0.184335
0.159132
0.1331
0.109337
0.0892957
0.0734
0.061252
0.0521363
0.045331
0.0402432
0.0364371
0.033614
0.0315774
0.0301989
0.0293894
0.0290755
0.0291703
0.029579
0.0302078
0.0308197
0.192278
0.207044
0.204004
0.196644
0.181846
0.159519
0.135539
0.112957
0.0932756
0.0771631
0.0645326
0.0548818
0.0476032
0.0421487
0.0380916
0.0351265
0.0330445
0.0317007
0.0309856
0.0308033
0.0310252
0.0315767
0.0323143
0.0329896
0.203011
0.211528
0.20522
0.195174
0.180119
0.159807
0.137694
0.116334
0.0971846
0.0810096
0.0679727
0.0577909
0.0499966
0.0441115
0.0397322
0.0365535
0.0343553
0.0329755
0.0322844
0.0321658
0.0324548
0.0330972
0.0339132
0.034644
0.217002
0.22099
0.209961
0.196137
0.179963
0.160499
0.139797
0.119575
0.101035
0.0849386
0.071594
0.0609102
0.052572
0.0461923
0.0414093
0.0379289
0.0355255
0.0340234
0.0332751
0.0331471
0.0334462
0.0341249
0.0349902
0.0357684
0.234238
0.236403
0.220693
0.200607
0.181754
0.16214
0.142202
0.12285
0.1049
0.0889763
0.0754261
0.0642936
0.0554044
0.0484749
0.0432032
0.0393207
0.0366068
0.0348796
0.0339794
0.0337584
0.0340077
0.034659
0.0355386
0.0363527
0.253897
0.257169
0.23782
0.211188
0.187394
0.165816
0.145549
0.126519
0.108959
0.0932058
0.0795239
0.0680073
0.0585831
0.0510671
0.0452284
0.0408388
0.0376964
0.0356244
0.0344596
0.0340443
0.0341755
0.0347165
0.0355654
0.0363968
0.273957
0.280763
0.25988
0.227997
0.19841
0.172985
0.150895
0.13125
0.113598
0.0978371
0.0840094
0.0721492
0.0622182
0.0541014
0.0476352
0.0426407
0.0389472
0.0363967
0.0348358
0.0341081
0.0340553
0.0344135
0.0351717
0.0359939
0.291149
0.302626
0.282979
0.249073
0.214817
0.184846
0.15958
0.138118
0.119556
0.103332
0.0891618
0.0769059
0.0664679
0.0577444
0.0506118
0.044934
0.040576
0.0374089
0.0353042
0.034124
0.0337112
0.0338345
0.0343595
0.0351223
0.30133
0.317236
0.301417
0.269596
0.234025
0.200921
0.172342
0.14824
0.127873
0.110492
0.0955409
0.0826587
0.0716121
0.0622374
0.0544008
0.0479813
0.0428674
0.0389572
0.0361527
0.0343483
0.0334015
0.033158
0.0333695
0.0339581
0.300407
0.319279
0.309142
0.283301
0.250721
0.217916
0.187868
0.161648
0.13924
0.120186
0.103944
0.0900498
0.078147
0.0679777
0.0593522
0.0521257
0.0461829
0.0414302
0.0377886
0.0351762
0.0335284
0.0326695
0.0324923
0.0327447
0.284878
0.304963
0.30226
0.284299
0.258659
0.230392
0.202256
0.176117
0.152788
0.132425
0.114838
0.099708
0.0867044
0.0755391
0.0659791
0.0578428
0.0509907
0.0453166
0.04074
0.0371886
0.0346012
0.0329441
0.0320615
0.0319036
0.252462
0.273219
0.278509
0.271012
0.254466
0.233194
0.210442
0.187448
0.165521
0.145399
0.12737
0.111449
0.0975091
0.0853649
0.0748259
0.0657193
0.0579003
0.051252
0.0456844
0.0411271
0.0375036
0.0347916
0.0329761
0.0320351
0.20019
0.227511
0.240266
0.242412
0.237489
0.225616
0.209225
0.191576
0.173553
0.155836
0.139091
0.123665
0.10969
0.0971731
0.0860505
0.0762291
0.0676108
0.0601037
0.0536273
0.0481133
0.0435161
0.0397498
0.0368883
0.0346859
0.00343344
0.00772908
0.0157679
0.025202
0.0372343
0.0633378
0.0148353
0.0225761
0.0340789
0.0452652
0.0590196
0.081142
0.0189215
0.0302838
0.0435692
0.0561683
0.0702782
0.0888221
0.0211772
0.0354603
0.0500313
0.0636102
0.0776559
0.0932141
0.0229659
0.039501
0.0550643
0.0693006
0.0830916
0.0964508
0.0242441
0.0428676
0.0592061
0.0738807
0.0873947
0.0993094
0.0249503
0.0457657
0.0626813
0.0776596
0.0909742
0.102048
0.0249637
0.048311
0.0655906
0.0808038
0.0940445
0.104747
0.0251814
0.0503682
0.0679747
0.0834086
0.096718
0.107427
0.0254912
0.0519562
0.0698562
0.0855276
0.0990522
0.110086
0.0258264
0.0530842
0.0712473
0.0871867
0.101067
0.112699
0.0260733
0.0537545
0.0721524
0.0883902
0.102751
0.115217
0.0261538
0.0539641
0.072567
0.0891223
0.104061
0.117566
0.0260306
0.0537037
0.0724785
0.0893474
0.104928
0.119627
0.0257116
0.0529548
0.0718573
0.0890106
0.105247
0.121243
0.0252929
0.0516807
0.0706654
0.0880362
0.104891
0.122201
0.0251146
0.0498319
0.068851
0.0863328
0.103704
0.122232
0.0249322
0.0474763
0.0663549
0.0837945
0.101516
0.121016
0.0245804
0.0446301
0.0631077
0.0803006
0.0981308
0.118199
0.0236419
0.0413005
0.0590037
0.075696
0.0932989
0.113383
0.0221277
0.0372896
0.0538139
0.0697177
0.0866854
0.106281
0.0200833
0.0321513
0.0469881
0.0617801
0.0776436
0.0963031
0.016171
0.0244584
0.0368471
0.0501666
0.064242
0.0824341
0.00406252
0.00862542
0.0167631
0.0278823
0.0395592
0.0598421
0.142827
0.178332
0.196409
0.20655
0.209735
0.207057
0.199497
0.18788
0.174685
0.161075
0.147392
0.134143
0.121637
0.110043
0.0994347
0.0898249
0.0811949
0.0735069
0.0667225
0.0607838
0.0556947
0.0512928
0.0479025
0.0444932
0.117996
0.142378
0.159771
0.172852
0.180765
0.183549
0.182186
0.177503
0.170009
0.161065
0.1516
0.142003
0.132624
0.123709
0.115416
0.107843
0.101039
0.0950144
0.0897631
0.0852393
0.0814459
0.0781884
0.0757992
0.0732724
0.109021
0.123753
0.13677
0.148376
0.157244
0.162691
0.164902
0.164488
0.162102
0.158053
0.153278
0.14824
0.143297
0.138727
0.134709
0.131397
0.128867
0.127128
0.126135
0.125884
0.126216
0.126929
0.128
0.129212
0.106492
0.116115
0.125703
0.134809
0.142463
0.148165
0.151962
0.154087
0.154861
0.154759
0.154233
0.153632
0.15335
0.153572
0.154435
0.156117
0.158571
0.161698
0.165316
0.169111
0.172731
0.175893
0.178317
0.179875
0.106594
0.114048
0.121856
0.129218
0.135602
0.140732
0.144703
0.147763
0.150198
0.152345
0.154479
0.156833
0.159613
0.162903
0.16669
0.170903
0.175382
0.179917
0.184267
0.188176
0.191379
0.193647
0.194908
0.195344
0.108174
0.114746
0.121586
0.128082
0.13373
0.138364
0.142136
0.14532
0.148203
0.151056
0.154078
0.157395
0.161065
0.165109
0.169424
0.173871
0.178284
0.182473
0.186243
0.18941
0.191776
0.193141
0.193409
0.193115
0.110554
0.117192
0.123811
0.129922
0.135141
0.139389
0.142854
0.145817
0.148555
0.151291
0.154172
0.15726
0.160532
0.163871
0.1672
0.170414
0.17339
0.175982
0.178035
0.179449
0.180115
0.179964
0.17913
0.178025
0.113432
0.120716
0.12773
0.134065
0.139393
0.143671
0.147083
0.149886
0.152327
0.154598
0.156822
0.159049
0.161269
0.16343
0.165409
0.167062
0.168256
0.168954
0.169173
0.168956
0.168313
0.167376
0.166349
0.165486
0.116685
0.125037
0.132953
0.140039
0.145986
0.150765
0.154538
0.157529
0.159945
0.161947
0.163642
0.165083
0.166282
0.167221
0.167869
0.168195
0.168179
0.167831
0.167125
0.166129
0.164948
0.163781
0.162919
0.16241
0.12025
0.130053
0.139326
0.147621
0.154631
0.160333
0.164877
0.168466
0.171283
0.173469
0.175126
0.176316
0.177072
0.17741
0.177352
0.176903
0.176044
0.174794
0.173177
0.171236
0.16907
0.166922
0.16532
0.164561
0.124083
0.135715
0.146747
0.156619
0.165008
0.17192
0.177516
0.182004
0.185556
0.188309
0.190375
0.191816
0.19267
0.19297
0.192782
0.192158
0.191009
0.189285
0.18696
0.183988
0.180304
0.175908
0.171414
0.16794
0.128134
0.141961
0.155072
0.166724
0.176594
0.184749
0.191393
0.196774
0.201056
0.204399
0.206966
0.20874
0.209745
0.21005
0.209654
0.20838
0.206061
0.20273
0.198444
0.193183
0.187033
0.180353
0.173738
0.168072
0.132314
0.148676
0.164028
0.177413
0.188544
0.197607
0.204895
0.210726
0.215216
0.218496
0.220444
0.221296
0.221163
0.220172
0.218149
0.215227
0.211446
0.20673
0.20105
0.194383
0.186791
0.178166
0.169133
0.159252
0.136483
0.155646
0.173151
0.187867
0.199636
0.208821
0.215652
0.220246
0.223197
0.224772
0.225375
0.224975
0.223706
0.221321
0.217733
0.212972
0.207025
0.1999
0.191627
0.182252
0.171958
0.16065
0.149495
0.136
0.14044
0.162532
0.181728
0.196928
0.208032
0.215343
0.220011
0.222967
0.22431
0.224075
0.222543
0.219637
0.215299
0.209714
0.20291
0.194932
0.185827
0.175677
0.16458
0.152689
0.140347
0.127668
0.115911
0.102686
0.143902
0.16883
0.188751
0.202563
0.211182
0.216481
0.218866
0.218628
0.216562
0.212664
0.207142
0.200313
0.192291
0.18318
0.173085
0.162097
0.150362
0.138053
0.125501
0.113091
0.101323
0.0905132
0.0810657
0.0736768
0.14648
0.17384
0.192446
0.203791
0.20968
0.211044
0.209142
0.204761
0.198034
0.189781
0.180297
0.16984
0.158625
0.146821
0.134584
0.122148
0.109861
0.098179
0.0875487
0.0781761
0.0704202
0.0646972
0.0611882
0.0599197
0.147549
0.176439
0.192561
0.200066
0.201179
0.198126
0.191461
0.182184
0.171393
0.159605
0.147245
0.13464
0.122024
0.109631
0.0978151
0.0870154
0.0775594
0.0696158
0.0631979
0.0584288
0.0551567
0.0533166
0.0528268
0.0537036
0.146749
0.176315
0.188041
0.190387
0.187264
0.179389
0.168151
0.155437
0.142039
0.128568
0.115476
0.103021
0.0914921
0.0812294
0.0724884
0.0652894
0.0595188
0.0550192
0.0516556
0.0493522
0.0481144
0.0479765
0.0485022
0.0503846
0.143703
0.17283
0.179293
0.177505
0.170418
0.158164
0.144261
0.129909
0.115942
0.102909
0.0910712
0.0806604
0.0718356
0.0645716
0.0586724
0.0539108
0.0501118
0.0471688
0.0450556
0.0438205
0.0435155
0.0438344
0.0448993
0.0473558
0.140657
0.167381
0.169367
0.165002
0.153568
0.138889
0.123815
0.109438
0.0963884
0.084916
0.0751053
0.0669224
0.0601646
0.0545819
0.0499732
0.0462123
0.0432342
0.0410266
0.0396275
0.039109
0.0393017
0.040081
0.041723
0.04443
0.139802
0.164708
0.163443
0.154797
0.139379
0.123293
0.108065
0.0944539
0.082695
0.0727444
0.0644329
0.0575026
0.0517242
0.0469395
0.0430473
0.0399707
0.0376659
0.0361258
0.0353669
0.0353782
0.0358653
0.037042
0.0389247
0.0415643
0.146236
0.165684
0.161033
0.146109
0.127914
0.110932
0.0959792
0.0832263
0.0725107
0.0635665
0.056113
0.0499325
0.0448684
0.0407888
0.0375739
0.0351297
0.0333955
0.0323455
0.0319786
0.0321669
0.032872
0.0341933
0.0360703
0.0385351
0.164327
0.17488
0.160093
0.137876
0.117869
0.10063
0.0861754
0.0741677
0.0642145
0.0559839
0.0492275
0.0437483
0.0393656
0.0359129
0.0332504
0.0312741
0.0299195
0.0291583
0.0289853
0.0292658
0.0300524
0.0313433
0.0331207
0.0353711
)
;

boundaryField
{
    rotor
    {
        type            kqRWallFunction;
        value           nonuniform List<scalar> 
144
(
0.00605541
0.0246616
0.0675028
0.116272
0.152135
0.142512
0.00605541
0.0190134
0.0250576
0.0285572
0.0322828
0.0354021
0.0378396
0.0396302
0.0408253
0.041471
0.0416013
0.0412507
0.0405004
0.0394503
0.0380771
0.036368
0.034309
0.031862
0.0289145
0.0250836
0.023032
0.0211498
0.0174007
0.00498373
0.00498373
0.00772293
0.0139053
0.0233682
0.0422447
0.121673
0.00687509
0.0326815
0.0783419
0.125776
0.15036
0.137762
0.00687509
0.021672
0.031282
0.0388249
0.0451155
0.0503322
0.0546005
0.058012
0.0606318
0.0625033
0.0636538
0.0641155
0.0640675
0.0635309
0.0624323
0.0606885
0.0582148
0.0549216
0.0507067
0.0454596
0.0390817
0.0315142
0.0222017
0.00652027
0.00652027
0.0245054
0.0570795
0.0948864
0.147629
0.176149
0.0112745
0.0164383
0.0197842
0.0212042
0.0220909
0.0440132
0.0112745
0.0296502
0.0383703
0.0442072
0.0483889
0.0516904
0.0544677
0.0568657
0.0589509
0.0607633
0.062334
0.0636938
0.0648312
0.0652581
0.0651074
0.0641625
0.0623831
0.0596856
0.0558986
0.0509309
0.0448106
0.0368982
0.0263416
0.0106782
0.0106782
0.0445945
0.0922474
0.120118
0.133034
0.126925
0.00343344
0.00772908
0.0157679
0.025202
0.0372343
0.0633378
0.00343344
0.0148353
0.0189215
0.0211772
0.0229659
0.0242441
0.0249503
0.0249637
0.0251814
0.0254912
0.0258264
0.0260733
0.0261538
0.0260306
0.0257116
0.0252929
0.0251146
0.0249322
0.0245804
0.0236419
0.0221277