/*--------------------------------*- C++ -*----------------------------------*\
  =========                 |
  \\      /  F ield         | OpenFOAM: The Open Source CFD Toolbox
   \\    /   O peration     | Website:  https://openfoam.org
    \\  /    A nd           | Version:  11
     \\/     M anipulation  |
\*---------------------------------------------------------------------------*/
FoamFile
{
    format      ascii;
    class       surfaceScalarField;
    location    "0.68";
    object      meshPhi;
}
// * * * * * * * * * * * * * * * * * * * * * * * * * * * * * * * * * * * * * //

dimensions      [0 3 -1 0 0 0 0];

internalField   nonuniform List<scalar> 
5640
(
1.36969e-16
9.81747e-07
2.42113e-16
1.37445e-06
3.76995e-16
1.76715e-06
-1.33923e-15
2.15984e-06
-3.68159e-15
2.55254e-06
2.94524e-06
5.95128e-15
1.84722e-18
9.81747e-07
-3.88791e-16
1.37445e-06
-2.60415e-15
1.76715e-06
1.94364e-15
2.15984e-06
8.06621e-15
2.55254e-06
2.94524e-06
-9.03001e-15
-1.16446e-16
9.81747e-07
1.86374e-16
1.37445e-06
-1.56228e-15
1.76715e-06
-4.21247e-15
2.15984e-06
-7.49838e-15
2.55254e-06
2.94524e-06
7.7232e-16
8.69446e-17
9.81747e-07
-1.01956e-16
1.37445e-06
2.69313e-15
1.76715e-06
7.44282e-15
2.15984e-06
3.25973e-15
2.55254e-06
2.94524e-06
-2.79788e-15
-4.83925e-17
9.81747e-07
3.95237e-17
1.37445e-06
1.94238e-16
1.76715e-06
-1.8061e-15
2.15984e-06
-4.20852e-15
2.55254e-06
2.94524e-06
5.01332e-15
-1.80107e-16
9.81747e-07
4.32633e-18
1.37445e-06
-1.84773e-15
1.76715e-06
-3.8861e-15
2.15984e-06
3.1569e-15
2.55254e-06
2.94524e-06
4.98094e-16
2.53974e-16
9.81747e-07
2.55488e-16
1.37445e-06
2.06591e-15
1.76715e-06
4.50406e-15
2.15984e-06
-2.31007e-15
2.55254e-06
2.94524e-06
5.40874e-16
2.16555e-17
9.81747e-07
-3.21683e-16
1.37445e-06
-1.14903e-15
1.76715e-06
-5.28561e-15
2.15984e-06
-3.76665e-16
2.55254e-06
2.94524e-06
-5.63982e-15
-1.43393e-16
9.81747e-07
1.66419e-16
1.37445e-06
4.19107e-15
1.76715e-06
6.34944e-15
2.15984e-06
-8.05469e-16
2.55254e-06
2.94524e-06
8.39221e-16
-6.88083e-17
9.81747e-07
-9.20952e-17
1.37445e-06
-2.76937e-15
1.76715e-06
-3.68724e-16
2.15984e-06
-1.4508e-15
2.55254e-06
2.94524e-06
-1.76494e-16
1.66334e-16
9.81747e-07
-8.86778e-17
1.37445e-06
5.69697e-16
1.76715e-06
-2.1035e-15
2.15984e-06
9.65999e-15
2.55254e-06
2.94524e-06
5.29042e-15
-1.77797e-16
9.81747e-07
-2.0479e-17
1.37445e-06
-3.45499e-16
1.76715e-06
-4.17267e-15
2.15984e-06
-2.62224e-15
2.55254e-06
2.94524e-06
5.36964e-15
1.77767e-16
9.81747e-07
2.05481e-17
1.37445e-06
3.45349e-16
1.76715e-06
4.17267e-15
2.15984e-06
2.62246e-15
2.55254e-06
2.94524e-06
-5.3694e-15
-1.66351e-16
9.81747e-07
8.86755e-17
1.37445e-06
-5.69637e-16
1.76715e-06
2.1036e-15
2.15984e-06
-9.65989e-15
2.55254e-06
2.94524e-06
-5.29012e-15
6.87993e-17
9.81747e-07
9.20206e-17
1.37445e-06
2.76941e-15
1.76715e-06
3.68857e-16
2.15984e-06
1.4508e-15
2.55254e-06
2.94524e-06
1.76728e-16
1.43397e-16
9.81747e-07
-1.66395e-16
1.37445e-06
-4.19113e-15
1.76715e-06
-6.34942e-15
2.15984e-06
8.05644e-16
2.55254e-06
2.94524e-06
-8.39289e-16
-2.16324e-17
9.81747e-07
3.21689e-16
1.37445e-06
1.14888e-15
1.76715e-06
5.28564e-15
2.15984e-06
3.76759e-16
2.55254e-06
2.94524e-06
5.63984e-15
-2.53956e-16
9.81747e-07
-2.55464e-16
1.37445e-06
-2.06595e-15
1.76715e-06
-4.50414e-15
2.15984e-06
2.30995e-15
2.55254e-06
2.94524e-06
-5.40909e-16
1.80088e-16
9.81747e-07
-4.33004e-18
1.37445e-06
1.84776e-15
1.76715e-06
3.88604e-15
2.15984e-06
-3.15701e-15
2.55254e-06
2.94524e-06
-4.98185e-16
4.83671e-17
9.81747e-07
-3.94949e-17
1.37445e-06
-1.94335e-16
1.76715e-06
1.80601e-15
2.15984e-06
4.20856e-15
2.55254e-06
2.94524e-06
-5.01337e-15
-8.69656e-17
9.81747e-07
1.01929e-16
1.37445e-06
-2.69321e-15
1.76715e-06
-7.44282e-15
2.15984e-06
-3.25978e-15
2.55254e-06
2.94524e-06
2.79807e-15
1.16467e-16
9.81747e-07
-1.86366e-16
1.37445e-06
1.56228e-15
1.76715e-06
4.21261e-15
2.15984e-06
7.49853e-15
2.55254e-06
2.94524e-06
-7.7224e-16
-1.83935e-18
9.81747e-07
3.88791e-16
1.37445e-06
2.60418e-15
1.76715e-06
-1.94365e-15
2.15984e-06
-8.06621e-15
2.55254e-06
2.94524e-06
9.03002e-15
-1.36938e-16
-2.42119e-16
-3.76939e-16
1.33931e-15
3.68157e-15
-5.95114e-15
-1.1336e-14
4.53785e-06
-4.53785e-06
-4.81249e-16
5.23599e-06
-5.23599e-06
-5.35715e-15
5.93412e-06
-5.93412e-06
-1.13032e-14
6.63225e-06
-6.63225e-06
4.86944e-15
7.33038e-06
-7.33038e-06
-1.10939e-15
8.02851e-06
-8.02851e-06
-8.15788e-15
8.72664e-06
-8.72664e-06
1.30447e-14
9.42478e-06
-9.42478e-06
5.94884e-15
1.01229e-05
-1.01229e-05
-1.99585e-15
1.0821e-05
-1.0821e-05
2.43857e-14
1.15192e-05
-1.15192e-05
1.61894e-14
1.22173e-05
-1.22173e-05
-3.27854e-14
1.29154e-05
-1.29154e-05
-3.05204e-15
1.36136e-05
-1.36136e-05
-1.44413e-14
1.43117e-05
-1.43117e-05
-2.69033e-14
1.50098e-05
-1.50098e-05
7.74015e-15
1.5708e-05
-1.5708e-05
-4.43667e-15
1.64061e-05
-1.64061e-05
-1.80008e-14
1.71042e-05
-1.71042e-05
2.18206e-14
1.78024e-05
-1.78024e-05
8.21555e-15
1.85005e-05
-1.85005e-05
-6.08077e-15
1.91986e-05
-1.91986e-05
3.89207e-14
1.98967e-05
-1.98967e-05
2.05949e-05
-2.05949e-05
9.39899e-15
4.53785e-06
5.2041e-16
5.23599e-06
7.52837e-15
5.93412e-06
-4.41177e-15
6.63225e-06
3.78298e-15
7.33038e-06
1.33848e-14
8.02851e-06
-2.10928e-15
8.72664e-06
8.5288e-15
9.42478e-06
-1.00264e-14
1.01229e-05
1.86581e-15
1.0821e-05
-2.02024e-14
1.15192e-05
-7.01229e-15
1.22173e-05
7.51163e-15
1.29154e-05
2.3611e-14
1.36136e-05
-2.03959e-15
1.43117e-05
1.48306e-14
1.50098e-05
-1.38765e-14
1.5708e-05
2.39213e-15
1.64061e-05
2.04087e-14
1.71042e-05
-7.01662e-15
1.78024e-05
1.20653e-14
1.85005e-05
-2.5942e-14
1.91986e-05
1.847e-15
1.98967e-05
2.05949e-05
-8.67613e-15
4.53785e-06
1.22921e-14
5.23599e-06
1.88328e-15
5.93412e-06
8.90278e-15
6.63225e-06
-5.10921e-15
7.33038e-06
-2.19903e-14
8.02851e-06
1.2264e-14
8.72664e-06
-5.373e-15
9.42478e-06
4.45772e-15
1.01229e-05
-1.43065e-14
1.0821e-05
-7.32444e-15
1.15192e-05
7.03975e-15
1.22173e-05
2.39936e-14
1.29154e-05
-7.55188e-15
1.36136e-05
9.80405e-15
1.43117e-05
-1.6237e-14
1.50098e-05
4.02971e-14
1.5708e-05
1.44454e-14
1.64061e-05
-1.37009e-14
1.71042e-05
-7.89444e-15
1.78024e-05
-3.92542e-14
1.85005e-05
4.27508e-14
1.91986e-05
-8.84527e-15
1.98967e-05
2.05949e-05
5.98583e-15
4.53785e-06
2.1909e-16
5.23599e-06
-6.43517e-15
5.93412e-06
6.06426e-15
6.63225e-06
-2.09237e-15
7.33038e-06
1.61771e-14
8.02851e-06
-1.88307e-14
8.72664e-06
-2.34962e-15
9.42478e-06
9.17299e-15
1.01229e-05
-4.71011e-15
1.0821e-05
2.16298e-14
1.15192e-05
-2.9645e-14
1.22173e-05
-9.28772e-15
1.29154e-05
-1.89048e-14
1.36136e-05
4.46799e-15
1.43117e-05
3.01565e-14
1.50098e-05
-2.62155e-14
1.5708e-05
4.35331e-16
1.64061e-05
-2.11689e-14
1.71042e-05
1.87142e-14
1.78024e-05
-3.92208e-15
1.85005e-05
-2.91567e-14
1.91986e-05
1.52368e-14
1.98967e-05
2.05949e-05
6.71508e-15
4.53785e-06
-7.3063e-15
5.23599e-06
1.11013e-14
5.93412e-06
-4.24115e-15
6.63225e-06
1.5102e-14
7.33038e-06
-5.20993e-15
8.02851e-06
1.70129e-14
8.72664e-06
-3.93971e-15
9.42478e-06
-2.93457e-16
1.01229e-05
6.612e-15
1.0821e-05
1.37051e-14
1.15192e-05
1.01854e-14
1.22173e-05
1.82184e-14
1.29154e-05
1.43702e-14
1.36136e-05
2.33397e-14
1.43117e-05
-2.53422e-14
1.50098e-05
2.90737e-14
1.5708e-05
-7.83056e-15
1.64061e-05
3.5418e-14
1.71042e-05
-4.51402e-15
1.78024e-05
4.23732e-14
1.85005e-05
-5.80009e-16
1.91986e-05
-8.73306e-15
1.98967e-05
2.05949e-05
-4.63056e-15
4.53785e-06
5.79804e-15
5.23599e-06
-1.61503e-14
5.93412e-06
-5.97445e-15
6.63225e-06
-8.55504e-15
7.33038e-06
4.22338e-15
8.02851e-06
-8.18731e-15
8.72664e-06
6.99982e-15
9.42478e-06
-2.42291e-14
1.01229e-05
-7.76822e-15
1.0821e-05
-2.27647e-14
1.15192e-05
8.35123e-15
1.22173e-05
-7.40387e-15
1.29154e-05
2.82676e-14
1.36136e-05
-4.57093e-14
1.43117e-05
-8.22099e-15
1.50098e-05
-2.8226e-14
1.5708e-05
-2.34027e-15
1.64061e-05
-6.94488e-15
1.71042e-05
2.21498e-14
1.78024e-05
-3.4109e-14
1.85005e-05
-3.73634e-15
1.91986e-05
-3.23432e-14
1.98967e-05
2.05949e-05
-8.92511e-15
4.53785e-06
-2.28869e-15
5.23599e-06
-2.22402e-15
5.93412e-06
6.61623e-15
6.63225e-06
-3.38768e-15
7.33038e-06
-3.90636e-15
8.02851e-06
-6.41851e-15
8.72664e-06
-7.15766e-15
9.42478e-06
6.81045e-15
1.01229e-05
6.98354e-15
1.0821e-05
-9.06482e-15
1.15192e-05
6.7606e-15
1.22173e-05
-2.88877e-14
1.29154e-05
-1.22333e-14
1.36136e-05
4.80481e-15
1.43117e-05
2.50292e-14
1.50098e-05
3.861e-15
1.5708e-05
3.60866e-15
1.64061e-05
-2.04827e-14
1.71042e-05
-2.17574e-14
1.78024e-05
3.46883e-15
1.85005e-05
2.90406e-14
1.91986e-05
-1.65977e-15
1.98967e-05
2.05949e-05
6.21579e-15
4.53785e-06
-3.87906e-15
5.23599e-06
1.54222e-14
5.93412e-06
-7.06524e-15
6.63225e-06
-2.20978e-15
7.33038e-06
1.42939e-15
8.02851e-06
-5.49304e-15
8.72664e-06
1.32265e-14
9.42478e-06
6.04645e-15
1.01229e-05
-1.74504e-14
1.0821e-05
2.08877e-14
1.15192e-05
-2.14451e-14
1.22173e-05
1.9137e-14
1.29154e-05
-7.31867e-15
1.36136e-05
3.84893e-14
1.43117e-05
-1.29202e-14
1.50098e-05
-1.88076e-15
1.5708e-05
5.71754e-15
1.64061e-05
-7.58701e-15
1.71042e-05
2.76626e-14
1.78024e-05
1.40991e-14
1.85005e-05
-5.31418e-14
1.91986e-05
3.90906e-14
1.98967e-05
2.05949e-05
-1.49833e-15
4.53785e-06
1.08969e-14
5.23599e-06
-6.59901e-15
5.93412e-06
7.26543e-15
6.63225e-06
6.17559e-15
7.33038e-06
2.48821e-15
8.02851e-06
-9.6426e-16
8.72664e-06
-4.3644e-15
9.42478e-06
-8.9009e-15
1.01229e-05
1.38634e-14
1.0821e-05
1.06917e-14
1.15192e-05
6.25092e-15
1.22173e-05
-1.25248e-16
1.29154e-05
-3.43842e-15
1.36136e-05
-1.10415e-14
1.43117e-05
-1.77647e-14
1.50098e-05
1.76804e-14
1.5708e-05
9.95285e-15
1.64061e-05
3.33124e-15
1.71042e-05
-3.29653e-14
1.78024e-05
-1.04217e-14
1.85005e-05
3.00714e-14
1.91986e-05
-5.9992e-14
1.98967e-05
2.05949e-05
5.17041e-15
4.53785e-06
-7.45572e-15
5.23599e-06
-7.56717e-16
5.93412e-06
6.83952e-15
6.63225e-06
-9.97423e-15
7.33038e-06
-1.66471e-15
8.02851e-06
9.21952e-15
8.72664e-06
-1.34593e-14
9.42478e-06
2.32202e-14
1.01229e-05
1.04722e-14
1.0821e-05
-1.72718e-14
1.15192e-05
-3.02687e-15
1.22173e-05
1.13986e-14
1.29154e-05
-1.9817e-14
1.36136e-05
-4.67981e-15
1.43117e-05
5.03078e-14
1.50098e-05
-2.40442e-14
1.5708e-05
-6.65885e-15
1.64061e-05
1.42629e-14
1.71042e-05
1.65251e-15
1.78024e-05
-6.81024e-15
1.85005e-05
1.44423e-14
1.91986e-05
5.07552e-14
1.98967e-05
2.05949e-05
-6.19737e-15
4.53785e-06
2.86347e-17
5.23599e-06
1.15118e-14
5.93412e-06
-2.06259e-14
6.63225e-06
5.36684e-15
7.33038e-06
1.22173e-15
8.02851e-06
-4.66167e-17
8.72664e-06
1.23936e-14
9.42478e-06
-1.32253e-14
1.01229e-05
-1.88936e-14
1.0821e-05
-4.96443e-15
1.15192e-05
-7.15465e-15
1.22173e-05
-1.48871e-14
1.29154e-05
3.53382e-14
1.36136e-05
-3.05255e-18
1.43117e-05
-4.31356e-14
1.50098e-05
1.35652e-14
1.5708e-05
-2.82569e-14
1.64061e-05
2.45488e-15
1.71042e-05
-1.02402e-14
1.78024e-05
2.3804e-14
1.85005e-05
1.38761e-14
1.91986e-05
-4.55625e-14
1.98967e-05
2.05949e-05
-1.9068e-15
4.53785e-06
1.13094e-15
5.23599e-06
-2.16619e-14
5.93412e-06
9.62405e-15
6.63225e-06
1.51377e-14
7.33038e-06
-1.40654e-14
8.02851e-06
8.09331e-15
8.72664e-06
-2.69591e-14
9.42478e-06
-1.96603e-15
1.01229e-05
2.97186e-14
1.0821e-05
-1.17466e-14
1.15192e-05
1.98657e-14
1.22173e-05
-2.74453e-14
1.29154e-05
-2.06141e-14
1.36136e-05
1.60404e-14
1.43117e-05
-4.61393e-15
1.50098e-05
4.69431e-15
1.5708e-05
4.79649e-14
1.64061e-05
-1.37385e-14
1.71042e-05
3.23732e-14
1.78024e-05
-3.51852e-14
1.85005e-05
-2.49076e-14
1.91986e-05
7.19168e-14
1.98967e-05
2.05949e-05
1.9066e-15
4.53785e-06
-1.13075e-15
5.23599e-06
2.16623e-14
5.93412e-06
-9.62407e-15
6.63225e-06
-1.51373e-14
7.33038e-06
1.40654e-14
8.02851e-06
-8.09307e-15
8.72664e-06
2.69609e-14
9.42478e-06
1.96599e-15
1.01229e-05
-2.97169e-14
1.0821e-05
1.17471e-14
1.15192e-05
-1.98672e-14
1.22173e-05
2.74453e-14
1.29154e-05
2.06169e-14
1.36136e-05
-1.60407e-14
1.43117e-05
4.61382e-15
1.50098e-05
-4.68777e-15
1.5708e-05
-4.79689e-14
1.64061e-05
1.37393e-14
1.71042e-05
-3.23723e-14
1.78024e-05
3.51855e-14
1.85005e-05
2.49049e-14
1.91986e-05
-7.19186e-14
1.98967e-05
2.05949e-05
6.19726e-15
4.53785e-06
-2.83529e-17
5.23599e-06
-1.15116e-14
5.93412e-06
2.06257e-14
6.63225e-06
-5.36655e-15
7.33038e-06
-1.22133e-15
8.02851e-06
4.71772e-17
8.72664e-06
-1.23931e-14
9.42478e-06
1.32267e-14
1.01229e-05
1.88954e-14
1.0821e-05
4.96423e-15
1.15192e-05
7.15459e-15
1.22173e-05
1.48883e-14
1.29154e-05
-3.53379e-14
1.36136e-05
1.32512e-18
1.43117e-05
4.31371e-14
1.50098e-05
-1.35606e-14
1.5708e-05
2.82552e-14
1.64061e-05
-2.45367e-15
1.71042e-05
1.02438e-14
1.78024e-05
-2.38032e-14
1.85005e-05
-1.38744e-14
1.91986e-05
4.55641e-14
1.98967e-05
2.05949e-05
-5.16991e-15
4.53785e-06
7.4557e-15
5.23599e-06
7.56762e-16
5.93412e-06
-6.83923e-15
6.63225e-06
9.97485e-15
7.33038e-06
1.66412e-15
8.02851e-06
-9.21877e-15
8.72664e-06
1.34602e-14
9.42478e-06
-2.32216e-14
1.01229e-05
-1.04724e-14
1.0821e-05
1.72731e-14
1.15192e-05
3.02705e-15
1.22173e-05
-1.13984e-14
1.29154e-05
1.98167e-14
1.36136e-05
4.67678e-15
1.43117e-05
-5.03049e-14
1.50098e-05
2.40462e-14
1.5708e-05
6.65649e-15
1.64061e-05
-1.42618e-14
1.71042e-05
-1.64613e-15
1.78024e-05
6.80888e-15
1.85005e-05
-1.44444e-14
1.91986e-05
-5.0757e-14
1.98967e-05
2.05949e-05
1.49881e-15
4.53785e-06
-1.08969e-14
5.23599e-06
6.59948e-15
5.93412e-06
-7.26557e-15
6.63225e-06
-6.17445e-15
7.33038e-06
-2.48864e-15
8.02851e-06
9.64413e-16
8.72664e-06
4.36566e-15
9.42478e-06
8.90001e-15
1.01229e-05
-1.3864e-14
1.0821e-05
-1.06906e-14
1.15192e-05
-6.25068e-15
1.22173e-05
1.27418e-16
1.29154e-05
3.43916e-15
1.36136e-05
1.10441e-14
1.43117e-05
1.77659e-14
1.50098e-05
-1.76806e-14
1.5708e-05
-9.95456e-15
1.64061e-05
-3.32697e-15
1.71042e-05
3.29688e-14
1.78024e-05
1.04187e-14
1.85005e-05
-3.00659e-14
1.91986e-05
5.99909e-14
1.98967e-05
2.05949e-05
-6.21543e-15
4.53785e-06
3.87957e-15
5.23599e-06
-1.5422e-14
5.93412e-06
7.06518e-15
6.63225e-06
2.21089e-15
7.33038e-06
-1.42844e-15
8.02851e-06
5.49263e-15
8.72664e-06
-1.32255e-14
9.42478e-06
-6.04506e-15
1.01229e-05
1.74501e-14
1.0821e-05
-2.08876e-14
1.15192e-05
2.14447e-14
1.22173e-05
-1.91334e-14
1.29154e-05
7.31713e-15
1.36136e-05
-3.84871e-14
1.43117e-05
1.29248e-14
1.50098e-05
1.88329e-15
1.5708e-05
-5.71374e-15
1.64061e-05
7.58562e-15
1.71042e-05
-2.76586e-14
1.78024e-05
-1.41015e-14
1.85005e-05
5.31414e-14
1.91986e-05
-3.90833e-14
1.98967e-05
2.05949e-05
8.92484e-15
4.53785e-06
2.28875e-15
5.23599e-06
2.22387e-15
5.93412e-06
-6.61641e-15
6.63225e-06
3.38824e-15
7.33038e-06
3.90803e-15
8.02851e-06
6.41856e-15
8.72664e-06
7.15816e-15
9.42478e-06
-6.81014e-15
1.01229e-05
-6.98322e-15
1.0821e-05
9.06392e-15
1.15192e-05
-6.75795e-15
1.22173e-05
2.88894e-14
1.29154e-05
1.22336e-14
1.36136e-05
-4.8063e-15
1.43117e-05
-2.50242e-14
1.50098e-05
-3.86333e-15
1.5708e-05
-3.60548e-15
1.64061e-05
2.04808e-14
1.71042e-05
2.17595e-14
1.78024e-05
-3.47105e-15
1.85005e-05
-2.90432e-14
1.91986e-05
1.66201e-15
1.98967e-05
2.05949e-05
4.63032e-15
4.53785e-06
-5.7976e-15
5.23599e-06
1.61502e-14
5.93412e-06
5.97436e-15
6.63225e-06
8.5555e-15
7.33038e-06
-4.22357e-15
8.02851e-06
8.18737e-15
8.72664e-06
-6.99846e-15
9.42478e-06
2.42297e-14
1.01229e-05
7.76881e-15
1.0821e-05
2.27648e-14
1.15192e-05
-8.34836e-15
1.22173e-05
7.40264e-15
1.29154e-05
-2.82665e-14
1.36136e-05
4.57099e-14
1.43117e-05
8.22358e-15
1.50098e-05
2.8225e-14
1.5708e-05
2.34089e-15
1.64061e-05
6.94512e-15
1.71042e-05
-2.21532e-14
1.78024e-05
3.41101e-14
1.85005e-05
3.74169e-15
1.91986e-05
3.23446e-14
1.98967e-05
2.05949e-05
-6.71502e-15
4.53785e-06
7.30666e-15
5.23599e-06
-1.11009e-14
5.93412e-06
4.24081e-15
6.63225e-06
-1.51024e-14
7.33038e-06
5.20921e-15
8.02851e-06
-1.70123e-14
8.72664e-06
3.9418e-15
9.42478e-06
2.94894e-16
1.01229e-05
-6.61167e-15
1.0821e-05
-1.37061e-14
1.15192e-05
-1.01849e-14
1.22173e-05
-1.82181e-14
1.29154e-05
-1.4369e-14
1.36136e-05
-2.334e-14
1.43117e-05
2.53451e-14
1.50098e-05
-2.90743e-14
1.5708e-05
7.8279e-15
1.64061e-05
-3.54184e-14
1.71042e-05
4.51081e-15
1.78024e-05
-4.23721e-14
1.85005e-05
5.88026e-16
1.91986e-05
8.73326e-15
1.98967e-05
2.05949e-05
-5.98583e-15
4.53785e-06
-2.1889e-16
5.23599e-06
6.43562e-15
5.93412e-06
-6.06414e-15
6.63225e-06
2.09213e-15
7.33038e-06
-1.61764e-14
8.02851e-06
1.88315e-14
8.72664e-06
2.35117e-15
9.42478e-06
-9.17171e-15
1.01229e-05
4.71075e-15
1.0821e-05
-2.16281e-14
1.15192e-05
2.9646e-14
1.22173e-05
9.28967e-15
1.29154e-05
1.89064e-14
1.36136e-05
-4.46709e-15
1.43117e-05
-3.01553e-14
1.50098e-05
2.62167e-14
1.5708e-05
-4.37866e-16
1.64061e-05
2.11714e-14
1.71042e-05
-1.87159e-14
1.78024e-05
3.91867e-15
1.85005e-05
2.91608e-14
1.91986e-05
-1.52311e-14
1.98967e-05
2.05949e-05
8.67618e-15
4.53785e-06
-1.2292e-14
5.23599e-06
-1.88293e-15
5.93412e-06
-8.90197e-15
6.63225e-06
5.10864e-15
7.33038e-06
2.19912e-14
8.02851e-06
-1.22644e-14
8.72664e-06
5.37407e-15
9.42478e-06
-4.45602e-15
1.01229e-05
1.43059e-14
1.0821e-05
7.32497e-15
1.15192e-05
-7.0398e-15
1.22173e-05
-2.39958e-14
1.29154e-05
7.55611e-15
1.36136e-05
-9.79928e-15
1.43117e-05
1.62371e-14
1.50098e-05
-4.02915e-14
1.5708e-05
-1.4445e-14
1.64061e-05
1.37033e-14
1.71042e-05
7.8944e-15
1.78024e-05
3.92531e-14
1.85005e-05
-4.27493e-14
1.91986e-05
8.8529e-15
1.98967e-05
2.05949e-05
-9.39882e-15
4.53785e-06
-5.2002e-16
5.23599e-06
-7.52814e-15
5.93412e-06
4.4123e-15
6.63225e-06
-3.78304e-15
7.33038e-06
-1.33851e-14
8.02851e-06
2.11036e-15
8.72664e-06
-8.52852e-15
9.42478e-06
1.00278e-14
1.01229e-05
-1.86547e-15
1.0821e-05
2.02022e-14
1.15192e-05
7.01379e-15
1.22173e-05
-7.51165e-15
1.29154e-05
-2.36072e-14
1.36136e-05
2.0431e-15
1.43117e-05
-1.48327e-14
1.50098e-05
1.38807e-14
1.5708e-05
-2.39084e-15
1.64061e-05
-2.04113e-14
1.71042e-05
7.01835e-15
1.78024e-05
-1.2067e-14
1.85005e-05
2.59453e-14
1.91986e-05
-1.85006e-15
1.98967e-05
2.05949e-05
1.13359e-14
4.53785e-06
4.81149e-16
5.23599e-06
5.35717e-15
5.93412e-06
1.13036e-14
6.63225e-06
-4.86929e-15
7.33038e-06
1.1096e-15
8.02851e-06
8.15839e-15
8.72664e-06
-1.30444e-14
9.42478e-06
-5.95026e-15
1.01229e-05
1.99555e-15
1.0821e-05
-2.4387e-14
1.15192e-05
-1.619e-14
1.22173e-05
3.27851e-14
1.29154e-05
3.05283e-15
1.36136e-05
1.44421e-14
1.43117e-05
2.69011e-14
1.50098e-05
-7.73888e-15
1.5708e-05
4.43839e-15
1.64061e-05
1.80027e-14
1.71042e-05
-2.18193e-14
1.78024e-05
-8.21309e-15
1.85005e-05
6.08472e-15
1.91986e-05
-3.89205e-14
1.98967e-05
2.05949e-05
1.36958e-16
9.81747e-07
2.42089e-16
1.37445e-06
3.76943e-16
1.76715e-06
-1.33929e-15
2.15984e-06
-3.68164e-15
2.55254e-06
2.94524e-06
5.95128e-15
1.84722e-18
9.81747e-07
-3.88791e-16
1.37445e-06
-2.60415e-15
1.76715e-06
1.94364e-15
2.15984e-06
8.06621e-15
2.55254e-06
2.94524e-06
-9.03001e-15
-1.16446e-16
9.81747e-07
1.86374e-16
1.37445e-06
-1.56228e-15
1.76715e-06
-4.21247e-15
2.15984e-06
-7.49838e-15
2.55254e-06
2.94524e-06
7.7232e-16
8.69446e-17
9.81747e-07
-1.01956e-16
1.37445e-06
2.69313e-15
1.76715e-06
7.44282e-15
2.15984e-06
3.25973e-15
2.55254e-06
2.94524e-06
-2.79788e-15
-4.83925e-17
9.81747e-07
3.95237e-17
1.37445e-06
1.94238e-16
1.76715e-06
-1.8061e-15
2.15984e-06
-4.20852e-15
2.55254e-06
2.94524e-06
5.01332e-15
-1.80107e-16
9.81747e-07
4.32633e-18
1.37445e-06
-1.84773e-15
1.76715e-06
-3.8861e-15
2.15984e-06
3.1569e-15
2.55254e-06
2.94524e-06
4.98094e-16
2.53974e-16
9.81747e-07
2.55488e-16
1.37445e-06
2.06591e-15
1.76715e-06
4.50406e-15
2.15984e-06
-2.31007e-15
2.55254e-06
2.94524e-06
5.40874e-16
2.16555e-17
9.81747e-07
-3.21683e-16
1.37445e-06
-1.14903e-15
1.76715e-06
-5.28561e-15
2.15984e-06
-3.76665e-16
2.55254e-06
2.94524e-06
-5.63982e-15
-1.43393e-16
9.81747e-07
1.66419e-16
1.37445e-06
4.19107e-15
1.76715e-06
6.34944e-15
2.15984e-06
-8.05469e-16
2.55254e-06
2.94524e-06
8.39221e-16
-6.88083e-17
9.81747e-07
-9.20952e-17
1.37445e-06
-2.76937e-15
1.76715e-06
-3.68724e-16
2.15984e-06
-1.4508e-15
2.55254e-06
2.94524e-06
-1.76494e-16
1.66334e-16
9.81747e-07
-8.86778e-17
1.37445e-06
5.69697e-16
1.76715e-06
-2.1035e-15
2.15984e-06
9.65999e-15
2.55254e-06
2.94524e-06
5.29042e-15
-1.77797e-16
9.81747e-07
-2.0479e-17
1.37445e-06
-3.45499e-16
1.76715e-06
-4.17267e-15
2.15984e-06
-2.62224e-15
2.55254e-06
2.94524e-06
5.36964e-15
1.77767e-16
9.81747e-07
2.05481e-17
1.37445e-06
3.45349e-16
1.76715e-06
4.17267e-15
2.15984e-06
2.62246e-15
2.55254e-06
2.94524e-06
-5.3694e-15
-1.66351e-16
9.81747e-07
8.86755e-17
1.37445e-06
-5.69637e-16
1.76715e-06
2.1036e-15
2.15984e-06
-9.65989e-15
2.55254e-06
2.94524e-06
-5.29012e-15
6.87993e-17
9.81747e-07
9.20206e-17
1.37445e-06
2.76941e-15
1.76715e-06
3.68857e-16
2.15984e-06
1.4508e-15
2.55254e-06
2.94524e-06
1.76728e-16
1.43397e-16
9.81747e-07
-1.66395e-16
1.37445e-06
-4.19113e-15
1.76715e-06
-6.34942e-15
2.15984e-06
8.05644e-16
2.55254e-06
2.94524e-06
-8.39289e-16
-2.16324e-17
9.81747e-07
3.21689e-16
1.37445e-06
1.14888e-15
1.76715e-06
5.28564e-15
2.15984e-06
3.76759e-16
2.55254e-06
2.94524e-06
5.63984e-15
-2.53956e-16
9.81747e-07
-2.55464e-16
1.37445e-06
-2.06595e-15
1.76715e-06
-4.50414e-15
2.15984e-06
2.30995e-15
2.55254e-06
2.94524e-06
-5.40909e-16
1.80088e-16
9.81747e-07
-4.33004e-18
1.37445e-06
1.84776e-15
1.76715e-06
3.88604e-15
2.15984e-06
-3.15701e-15
2.55254e-06
2.94524e-06
-4.98185e-16
4.83671e-17
9.81747e-07
-3.94949e-17
1.37445e-06
-1.94335e-16
1.76715e-06
1.80601e-15
2.15984e-06
4.20856e-15
2.55254e-06
2.94524e-06
-5.01337e-15
-8.69656e-17
9.81747e-07
1.01929e-16
1.37445e-06
-2.69321e-15
1.76715e-06
-7.44282e-15
2.15984e-06
-3.25978e-15
2.55254e-06
2.94524e-06
2.79807e-15
1.16467e-16
9.81747e-07
-1.86366e-16
1.37445e-06
1.56228e-15
1.76715e-06
4.21261e-15
2.15984e-06
7.49853e-15
2.55254e-06
2.94524e-06
-7.7224e-16
-1.83935e-18
9.81747e-07
3.88791e-16
1.37445e-06
2.60418e-15
1.76715e-06
-1.94365e-15
2.15984e-06
-8.06621e-15
2.55254e-06
2.94524e-06
9.03002e-15
-1.36941e-16
-2.42099e-16
-3.76976e-16
1.33929e-15
3.6816e-15
-5.95114e-15
-1.13361e-14
4.53785e-06
-4.81194e-16
5.23599e-06
-5.35714e-15
5.93412e-06
-1.13034e-14
6.63225e-06
4.86942e-15
7.33038e-06
-1.10904e-15
8.02851e-06
-8.158e-15
8.72664e-06
1.30448e-14
9.42478e-06
5.94947e-15
1.01229e-05
-1.99653e-15
1.0821e-05
2.43861e-14
1.15192e-05
1.61894e-14
1.22173e-05
-3.27852e-14
1.29154e-05
-3.04961e-15
1.36136e-05
-1.44415e-14
1.43117e-05
-2.69044e-14
1.50098e-05
7.74169e-15
1.5708e-05
-4.43618e-15
1.64061e-05
-1.8001e-14
1.71042e-05
2.18216e-14
1.78024e-05
8.21127e-15
1.85005e-05
-6.08075e-15
1.91986e-05
3.89194e-14
1.98967e-05
2.05949e-05
9.39899e-15
4.53785e-06
5.2041e-16
5.23599e-06
7.52837e-15
5.93412e-06
-4.41177e-15
6.63225e-06
3.78298e-15
7.33038e-06
1.33848e-14
8.02851e-06
-2.10928e-15
8.72664e-06
8.5288e-15
9.42478e-06
-1.00264e-14
1.01229e-05
1.86581e-15
1.0821e-05
-2.02024e-14
1.15192e-05
-7.01229e-15
1.22173e-05
7.51163e-15
1.29154e-05
2.3611e-14
1.36136e-05
-2.03959e-15
1.43117e-05
1.48306e-14
1.50098e-05
-1.38765e-14
1.5708e-05
2.39213e-15
1.64061e-05
2.04087e-14
1.71042e-05
-7.01662e-15
1.78024e-05
1.20653e-14
1.85005e-05
-2.5942e-14
1.91986e-05
1.847e-15
1.98967e-05
2.05949e-05
-8.67613e-15
4.53785e-06
1.22921e-14
5.23599e-06
1.88328e-15
5.93412e-06
8.90278e-15
6.63225e-06
-5.10921e-15
7.33038e-06
-2.19903e-14
8.02851e-06
1.2264e-14
8.72664e-06
-5.373e-15
9.42478e-06
4.45772e-15
1.01229e-05
-1.43065e-14
1.0821e-05
-7.32444e-15
1.15192e-05
7.03975e-15
1.22173e-05
2.39936e-14
1.29154e-05
-7.55188e-15
1.36136e-05
9.80405e-15
1.43117e-05
-1.6237e-14
1.50098e-05
4.02971e-14
1.5708e-05
1.44454e-14
1.64061e-05
-1.37009e-14
1.71042e-05
-7.89444e-15
1.78024e-05
-3.92542e-14
1.85005e-05
4.27508e-14
1.91986e-05
-8.84527e-15
1.98967e-05
2.05949e-05
5.98583e-15
4.53785e-06
2.1909e-16
5.23599e-06
-6.43517e-15
5.93412e-06
6.06426e-15
6.63225e-06
-2.09237e-15
7.33038e-06
1.61771e-14
8.02851e-06
-1.88307e-14
8.72664e-06
-2.34962e-15
9.42478e-06
9.17299e-15
1.01229e-05
-4.71011e-15
1.0821e-05
2.16298e-14
1.15192e-05
-2.9645e-14
1.22173e-05
-9.28772e-15
1.29154e-05
-1.89048e-14
1.36136e-05
4.46799e-15
1.43117e-05
3.01565e-14
1.50098e-05
-2.62155e-14
1.5708e-05
4.35331e-16
1.64061e-05
-2.11689e-14
1.71042e-05
1.87142e-14
1.78024e-05
-3.92208e-15
1.85005e-05
-2.91567e-14
1.91986e-05
1.52368e-14
1.98967e-05
2.05949e-05
6.71508e-15
4.53785e-06
-7.3063e-15
5.23599e-06
1.11013e-14
5.93412e-06
-4.24115e-15
6.63225e-06
1.5102e-14
7.33038e-06
-5.20993e-15
8.02851e-06
1.70129e-14
8.72664e-06
-3.93971e-15
9.42478e-06
-2.93457e-16
1.01229e-05
6.612e-15
1.0821e-05
1.37051e-14
1.15192e-05
1.01854e-14
1.22173e-05
1.82184e-14
1.29154e-05
1.43702e-14
1.36136e-05
2.33397e-14
1.43117e-05
-2.53422e-14
1.50098e-05
2.90737e-14
1.5708e-05
-7.83056e-15
1.64061e-05
3.5418e-14
1.71042e-05
-4.51402e-15
1.78024e-05
4.23732e-14
1.85005e-05
-5.80009e-16
1.91986e-05
-8.73306e-15
1.98967e-05
2.05949e-05
-4.63056e-15
4.53785e-06
5.79804e-15
5.23599e-06
-1.61503e-14
5.93412e-06
-5.97445e-15
6.63225e-06
-8.55504e-15
7.33038e-06
4.22338e-15
8.02851e-06
-8.18731e-15
8.72664e-06
6.99982e-15
9.42478e-06
-2.42291e-14
1.01229e-05
-7.76822e-15
1.0821e-05
-2.27647e-14
1.15192e-05
8.35123e-15
1.22173e-05
-7.40387e-15
1.29154e-05
2.82676e-14
1.36136e-05
-4.57093e-14
1.43117e-05
-8.22099e-15
1.50098e-05
-2.8226e-14
1.5708e-05
-2.34027e-15
1.64061e-05
-6.94488e-15
1.71042e-05
2.21498e-14
1.78024e-05
-3.4109e-14
1.85005e-05
-3.73634e-15
1.91986e-05
-3.23432e-14
1.98967e-05
2.05949e-05
-8.92511e-15
4.53785e-06
-2.28869e-15
5.23599e-06
-2.22402e-15
5.93412e-06
6.61623e-15
6.63225e-06
-3.38768e-15
7.33038e-06
-3.90636e-15
8.02851e-06
-6.41851e-15
8.72664e-06
-7.15766e-15
9.42478e-06
6.81045e-15
1.01229e-05
6.98354e-15
1.0821e-05
-9.06482e-15
1.15192e-05
6.7606e-15
1.22173e-05
-2.88877e-14
1.29154e-05
-1.22333e-14
1.36136e-05
4.80481e-15
1.43117e-05
2.50292e-14
1.50098e-05
3.861e-15
1.5708e-05
3.60866e-15
1.64061e-05
-2.04827e-14
1.71042e-05
-2.17574e-14
1.78024e-05
3.46883e-15
1.85005e-05
2.90406e-14
1.91986e-05
-1.65977e-15
1.98967e-05
2.05949e-05
6.21579e-15
4.53785e-06
-3.87906e-15
5.23599e-06
1.54222e-14
5.93412e-06
-7.06524e-15
6.63225e-06
-2.20978e-15
7.33038e-06
1.42939e-15
8.02851e-06
-5.49304e-15
8.72664e-06
1.32265e-14
9.42478e-06
6.04645e-15
1.01229e-05
-1.74504e-14
1.0821e-05
2.08877e-14
1.15192e-05
-2.14451e-14
1.22173e-05
1.9137e-14
1.29154e-05
-7.31867e-15
1.36136e-05
3.84893e-14
1.43117e-05
-1.29202e-14
1.50098e-05
-1.88076e-15
1.5708e-05
5.71754e-15
1.64061e-05
-7.58701e-15
1.71042e-05
2.76626e-14
1.78024e-05
1.40991e-14
1.85005e-05
-5.31418e-14
1.91986e-05
3.90906e-14
1.98967e-05
2.05949e-05
-1.49833e-15
4.53785e-06
1.08969e-14
5.23599e-06
-6.59901e-15
5.93412e-06
7.26543e-15
6.63225e-06
6.17559e-15
7.33038e-06
2.48821e-15
8.02851e-06
-9.6426e-16
8.72664e-06
-4.3644e-15
9.42478e-06
-8.9009e-15
1.01229e-05
1.38634e-14
1.0821e-05
1.06917e-14
1.15192e-05
6.25092e-15
1.22173e-05
-1.25248e-16
1.29154e-05
-3.43842e-15
1.36136e-05
-1.10415e-14
1.43117e-05
-1.77647e-14
1.50098e-05
1.76804e-14
1.5708e-05
9.95285e-15
1.64061e-05
3.33124e-15
1.71042e-05
-3.29653e-14
1.78024e-05
-1.04217e-14
1.85005e-05
3.00714e-14
1.91986e-05
-5.9992e-14
1.98967e-05
2.05949e-05
5.17041e-15
4.53785e-06
-7.45572e-15
5.23599e-06
-7.56717e-16
5.93412e-06
6.83952e-15
6.63225e-06
-9.97423e-15
7.33038e-06
-1.66471e-15
8.02851e-06
9.21952e-15
8.72664e-06
-1.34593e-14
9.42478e-06
2.32202e-14
1.01229e-05
1.04722e-14
1.0821e-05
-1.72718e-14
1.15192e-05
-3.02687e-15
1.22173e-05
1.13986e-14
1.29154e-05
-1.9817e-14
1.36136e-05
-4.67981e-15
1.43117e-05
5.03078e-14
1.50098e-05
-2.40442e-14
1.5708e-05
-6.65885e-15
1.64061e-05
1.42629e-14
1.71042e-05
1.65251e-15
1.78024e-05
-6.81024e-15
1.85005e-05
1.44423e-14
1.91986e-05
5.07552e-14
1.98967e-05
2.05949e-05
-6.19737e-15
4.53785e-06
2.86347e-17
5.23599e-06
1.15118e-14
5.93412e-06
-2.06259e-14
6.63225e-06
5.36684e-15
7.33038e-06
1.22173e-15
8.02851e-06
-4.66167e-17
8.72664e-06
1.23936e-14
9.42478e-06
-1.32253e-14
1.01229e-05
-1.88936e-14
1.0821e-05
-4.96443e-15
1.15192e-05
-7.15465e-15
1.22173e-05
-1.48871e-14
1.29154e-05
3.53382e-14
1.36136e-05
-3.05255e-18
1.43117e-05
-4.31356e-14
1.50098e-05
1.35652e-14
1.5708e-05
-2.82569e-14
1.64061e-05
2.45488e-15
1.71042e-05
-1.02402e-14
1.78024e-05
2.3804e-14
1.85005e-05
1.38761e-14
1.91986e-05
-4.55625e-14
1.98967e-05
2.05949e-05
-1.9068e-15
4.53785e-06
1.13094e-15
5.23599e-06
-2.16619e-14
5.93412e-06
9.62405e-15
6.63225e-06
1.51377e-14
7.33038e-06
-1.40654e-14
8.02851e-06
8.09331e-15
8.72664e-06
-2.69591e-14
9.42478e-06
-1.96603e-15
1.01229e-05
2.97186e-14
1.0821e-05
-1.17466e-14
1.15192e-05
1.98657e-14
1.22173e-05
-2.74453e-14
1.29154e-05
-2.06141e-14
1.36136e-05
1.60404e-14
1.43117e-05
-4.61393e-15
1.50098e-05
4.69431e-15
1.5708e-05
4.79649e-14
1.64061e-05
-1.37385e-14
1.71042e-05
3.23732e-14
1.78024e-05
-3.51852e-14
1.85005e-05
-2.49076e-14
1.91986e-05
7.19168e-14
1.98967e-05
2.05949e-05
1.9066e-15
4.53785e-06
-1.13075e-15
5.23599e-06
2.16623e-14
5.93412e-06
-9.62407e-15
6.63225e-06
-1.51373e-14
7.33038e-06
1.40654e-14
8.02851e-06
-8.09307e-15
8.72664e-06
2.69609e-14
9.42478e-06
1.96599e-15
1.01229e-05
-2.97169e-14
1.0821e-05
1.17471e-14
1.15192e-05
-1.98672e-14
1.22173e-05
2.74453e-14
1.29154e-05
2.06169e-14
1.36136e-05
-1.60407e-14
1.43117e-05
4.61382e-15
1.50098e-05
-4.68777e-15
1.5708e-05
-4.79689e-14
1.64061e-05
1.37393e-14
1.71042e-05
-3.23723e-14
1.78024e-05
3.51855e-14
1.85005e-05
2.49049e-14
1.91986e-05
-7.19186e-14
1.98967e-05
2.05949e-05
6.19726e-15
4.53785e-06
-2.83529e-17
5.23599e-06
-1.15116e-14
5.93412e-06
2.06257e-14
6.63225e-06
-5.36655e-15
7.33038e-06
-1.22133e-15
8.02851e-06
4.71772e-17
8.72664e-06
-1.23931e-14
9.42478e-06
1.32267e-14
1.01229e-05
1.88954e-14
1.0821e-05
4.96423e-15
1.15192e-05
7.15459e-15
1.22173e-05
1.48883e-14
1.29154e-05
-3.53379e-14
1.36136e-05
1.32512e-18
1.43117e-05
4.31371e-14
1.50098e-05
-1.35606e-14
1.5708e-05
2.82552e-14
1.64061e-05
-2.45367e-15
1.71042e-05
1.02438e-14
1.78024e-05
-2.38032e-14
1.85005e-05
-1.38744e-14
1.91986e-05
4.55641e-14
1.98967e-05
2.05949e-05
-5.16991e-15
4.53785e-06
7.4557e-15
5.23599e-06
7.56762e-16
5.93412e-06
-6.83923e-15
6.63225e-06
9.97485e-15
7.33038e-06
1.66412e-15
8.02851e-06
-9.21877e-15
8.72664e-06
1.34602e-14
9.42478e-06
-2.32216e-14
1.01229e-05
-1.04724e-14
1.0821e-05
1.72731e-14
1.15192e-05
3.02705e-15
1.22173e-05
-1.13984e-14
1.29154e-05
1.98167e-14
1.36136e-05
4.67678e-15
1.43117e-05
-5.03049e-14
1.50098e-05
2.40462e-14
1.5708e-05