/*--------------------------------*- C++ -*----------------------------------*\
  =========                 |
  \\      /  F ield         | OpenFOAM: The Open Source CFD Toolbox
   \\    /   O peration     | Website:  https://openfoam.org
    \\  /    A nd           | Version:  11
     \\/     M anipulation  |
\*---------------------------------------------------------------------------*/
FoamFile
{
    format      ascii;
    class       volVectorField;
    location    "0.68";
    object      U;
}
// * * * * * * * * * * * * * * * * * * * * * * * * * * * * * * * * * * * * * //

dimensions      [0 1 -1 0 0 0 0];

internalField   nonuniform List<vector> 
2880
(
(-0.0803822 -0.0557082 0)
(-0.148721 -0.163006 -2.24427e-20)
(-0.150838 -0.177832 2.17152e-20)
(-0.100327 -0.0900028 3.93875e-20)
(-0.00052357 0.0265799 -2.92662e-19)
(0.192112 0.398202 -4.84914e-21)
(-0.125086 -0.0885863 -2.2478e-19)
(-0.158113 -0.15509 2.09148e-20)
(-0.12668 -0.144703 2.37754e-19)
(-0.0457405 -0.046451 1.01813e-19)
(0.0828752 0.0751132 2.64069e-19)
(0.313552 0.288149 2.71862e-19)
(-0.143572 -0.0962319 2.17045e-19)
(-0.153751 -0.138348 0)
(-0.0926267 -0.114027 0)
(0.0177963 -0.0200246 -8.39787e-20)
(0.182113 0.0970521 -2.25944e-20)
(0.415016 0.257095 -8.51593e-20)
(-0.16139 -0.0980222 -2.16316e-19)
(-0.14732 -0.124553 8.74834e-21)
(-0.061128 -0.089636 -1.14128e-19)
(0.0738079 -0.00163492 1.17631e-20)
(0.260735 0.10984 -1.01321e-20)
(0.500467 0.240735 4.80471e-20)
(-0.183306 -0.0943139 2.12282e-19)
(-0.139691 -0.112335 -8.11728e-21)
(-0.0328068 -0.0703693 1.09104e-19)
(0.122669 0.0117787 0)
(0.327011 0.115909 -8.66837e-21)
(0.571281 0.22982 -5.02749e-20)
(-0.198735 -0.090934 3.24153e-21)
(-0.131936 -0.10087 -1.89508e-21)
(-0.00810295 -0.0550326 3.05328e-21)
(0.164366 0.0218782 -2.57636e-21)
(0.382568 0.119395 0)
(0.629952 0.223315 -1.46342e-20)
(-0.211058 -0.0880735 0)
(-0.12488 -0.0904523 0)
(0.0125692 -0.0427376 0)
(0.199053 0.0295811 6.32959e-22)
(0.42901 0.122225 -5.62584e-22)
(0.678753 0.221289 1.47265e-20)
(-0.221748 -0.0861659 -7.78248e-22)
(-0.119189 -0.0811732 -5.77509e-20)
(0.0288887 -0.0328661 1.40381e-21)
(0.226879 0.0354838 0)
(0.467308 0.125054 0)
(0.719143 0.223045 0)
(-0.230666 -0.0853358 0)
(-0.115275 -0.0729937 5.54751e-20)
(0.040636 -0.0249939 5.60992e-21)
(0.247962 0.0399395 -4.87287e-21)
(0.49803 0.127999 0)
(0.751941 0.227374 -7.50379e-21)
(-0.237525 -0.0853766 0)
(-0.11339 -0.065793 6.77292e-21)
(0.0476614 -0.018803 8.13455e-20)
(0.262373 0.0430372 -9.99486e-21)
(0.521482 0.130855 -6.37429e-20)
(0.777698 0.233081 -1.57059e-20)
(-0.242277 -0.0859041 0)
(-0.113689 -0.0593991 -1.13396e-19)
(0.0498508 -0.0140201 4.50127e-21)
(0.270127 0.044751 0)
(0.537776 0.133202 7.32954e-20)
(0.796777 0.239208 -6.76884e-20)
(-0.245043 -0.0864579 -5.82863e-21)
(-0.116256 -0.0536037 1.07549e-19)
(0.0470902 -0.0104028 -2.59444e-19)
(0.270929 0.0449909 0)
(0.546788 0.134678 0)
(0.809503 0.245014 -7.10951e-20)
(-0.245804 -0.0864719 0)
(-0.12113 -0.0481967 2.13162e-19)
(0.0392789 -0.00769267 1.74187e-19)
(0.264775 0.0438118 0)
(0.548215 0.135 1.50977e-19)
(0.816444 0.249957 1.39676e-19)
(-0.244718 -0.0855397 0)
(-0.128273 -0.0429978 -1.76651e-21)
(0.0263342 -0.00560828 0)
(0.25119 0.0410907 0)
(0.541602 0.133763 -3.05143e-19)
(0.817477 0.253457 0)
(-0.241889 -0.0829853 0)
(-0.137444 -0.0378084 -2.1951e-19)
(0.00820048 -0.00386761 -2.2305e-20)
(0.229859 0.0367886 1.9478e-20)
(0.526248 0.130584 1.94247e-19)
(0.812374 0.254928 -7.27466e-20)
(-0.237633 -0.0783531 -3.49827e-19)
(-0.148358 -0.0324349 -6.94012e-21)
(-0.0150883 -0.00217609 -1.97085e-19)
(0.200391 0.0308771 1.95041e-20)
(0.501196 0.125155 1.56189e-19)
(0.800693 0.253664 0)
(-0.232288 -0.0710738 -1.48415e-21)
(-0.160642 -0.0267217 0)
(-0.043316 -0.000261299 2.00219e-19)
(0.162466 0.0234287 -1.95114e-20)
(0.46509 0.117339 -6.95651e-22)
(0.781705 0.248722 -3.90049e-20)
(-0.226751 -0.0607401 3.71091e-19)
(-0.17379 -0.0206316 -2.36118e-19)
(-0.0759599 0.00204794 2.24922e-20)
(0.115912 0.0146863 -4.05494e-20)
(0.415885 0.107152 -1.40645e-19)
(0.754435 0.238878 0)
(-0.223225 -0.0485469 -3.99127e-19)
(-0.187055 -0.0144033 1.45552e-20)
(-0.111839 0.00485436 -1.78957e-19)
(0.0608076 0.00514124 0)
(0.351027 0.094836 0)
(0.71707 0.222413 -1.50171e-19)
(-0.213039 -0.0245349 3.526e-19)
(-0.198053 -0.00861991 2.49981e-19)
(-0.148751 0.00825717 2.98353e-21)
(-0.00173303 -0.00422278 0)
(0.267488 0.0815604 -4.13102e-20)
(0.666388 0.196633 2.28472e-19)
(-0.196734 -0.0123002 1.44928e-20)
(-0.203919 -0.00418206 -7.88009e-21)
(-0.183861 0.0124427 1.63205e-19)
(-0.068327 -0.0121295 3.93578e-20)
(0.16031 0.0694331 -1.78352e-20)
(0.597222 0.156882 0)
(-0.18003 -0.00761688 -3.14329e-19)
(-0.206147 0.000506905 -2.51322e-19)
(-0.2148 0.0186597 1.52173e-19)
(-0.131309 -0.0176822 -1.11038e-21)
(0.0200118 0.0627534 5.5731e-20)
(0.500002 0.0910351 -1.3887e-19)
(-0.156581 -0.000987522 -1.75585e-20)
(-0.201448 0.00616509 -5.18931e-22)
(-0.24198 0.0265944 -1.98354e-19)
(-0.180802 -0.0211087 -1.15457e-19)
(-0.170854 0.0647999 1.52599e-20)
(0.379639 -0.0101592 8.16692e-20)
(-0.0922235 -0.0015106 4.09767e-19)
(-0.159659 0.00344487 3.07958e-19)
(-0.24403 0.0346944 2.03617e-19)
(-0.201176 -0.00487275 1.41181e-19)
(-0.372577 0.109897 0)
(0.277584 -0.00308863 -4.68964e-20)
(0.80049 0.323591 -2.28263e-20)
(1.01092 0.21515 0)
(1.14091 0.187128 -5.08943e-20)
(1.22567 0.183329 -1.51597e-20)
(1.27564 0.181951 8.83453e-21)
(1.30156 0.178503 -7.53695e-21)
(1.31208 0.172662 6.95902e-21)
(1.31339 0.165013 1.39755e-20)
(1.30963 0.1563 1.55503e-20)
(1.30325 0.147042 1.14927e-20)
(1.29565 0.137564 0)
(1.28757 0.128117 0)
(1.27929 0.118836 -4.89164e-20)
(1.27083 0.109788 4.67195e-20)
(1.26206 0.101017 -1.4623e-20)
(1.25281 0.0925718 1.15642e-19)
(1.24281 0.0845333 -9.74152e-20)
(1.23174 0.0770243 0)
(1.21918 0.0702267 -2.44972e-20)
(1.20451 0.0642479 2.33747e-20)
(1.18696 0.0591602 0)
(1.16605 0.0563439 0)
(1.14238 0.0609125 0)
(1.11398 0.0747446 2.12094e-20)
(0.815803 0.305706 3.06553e-20)
(1.04056 0.244441 0)
(1.17249 0.223199 0)
(1.25053 0.21586 6.84798e-21)
(1.29077 0.208243 0)
(1.30752 0.19854 0)
(1.31091 0.187464 1.55819e-20)
(1.30722 0.175777 -1.3904e-20)
(1.30008 0.164031 3.05099e-21)
(1.29153 0.152579 1.63127e-20)
(1.28257 0.141605 5.58657e-20)
(1.27355 0.131156 -3.44859e-20)
(1.26454 0.121217 1.65343e-20)
(1.25545 0.111754 -3.42116e-20)
(1.2461 0.102744 -1.57372e-20)
(1.23629 0.0941872 -3.23221e-20)
(1.22574 0.0861198 4.52388e-20)
(1.2141 0.0786312 5.9563e-20)
(1.20095 0.0718623 -5.65402e-20)
(1.18572 0.0658881 1.42993e-20)
(1.1677 0.0607261 5.30282e-20)
(1.14649 0.0577348 -5.07523e-20)
(1.1226 0.0620189 1.42385e-20)
(1.09444 0.074783 0)
(0.833131 0.301294 1.28074e-20)
(1.06654 0.269926 -9.26119e-22)
(1.19524 0.254068 6.09698e-21)
(1.26363 0.242583 -1.04487e-20)
(1.29466 0.229262 -1.47853e-20)
(1.30442 0.214455 8.57516e-21)
(1.30304 0.199316 -4.25855e-20)
(1.29635 0.184574 1.77513e-20)
(1.28747 0.170615 -1.83699e-20)
(1.27797 0.157603 -2.08569e-20)
(1.26846 0.14554 5.9527e-22)
(1.25909 0.134345 -2.09326e-20)
(1.24979 0.12391 0)
(1.24039 0.11413 -1.89765e-21)
(1.23071 0.104926 1.9003e-20)
(1.22051 0.0962522 0)
(1.20954 0.0881095 1.76006e-20)
(1.19748 0.080557 -3.24693e-20)
(1.18393 0.0736969 1.46248e-20)
(1.16838 0.067571 -1.41919e-20)
(1.1502 0.0621564 -7.3027e-20)
(1.129 0.0587632 4.08963e-20)
(1.10522 0.0624963 -7.13619e-20)
(1.07768 0.0742226 7.05437e-20)
(0.862488 0.297497 7.16031e-21)
(1.08808 0.289512 0)
(1.20812 0.277905 -5.25287e-21)
(1.26673 0.263028 1.04171e-20)
(1.2903 0.245396 1.47276e-20)
(1.29516 0.226845 0)
(1.29085 0.208744 1.16971e-20)
(1.28262 0.191791 -3.46596e-20)
(1.27308 0.176249 2.21198e-20)
(1.26338 0.162123 0)
(1.25387 0.149286 2.3746e-20)
(1.24453 0.137556 2.06893e-20)
(1.23521 0.126752 2.1416e-20)
(1.22571 0.116717 -2.20754e-20)
(1.21584 0.107335 -1.87715e-20)
(1.2054 0.0985275 -1.9774e-20)
(1.19415 0.0902654 -3.64307e-20)
(1.18182 0.0825796 -5.35051e-20)
(1.16805 0.0755398 8.35041e-20)
(1.1524 0.0691485 -3.23e-20)
(1.1343 0.0633548 -1.3306e-21)
(1.11338 0.0594024 1.47483e-20)
(1.08996 0.0623714 6.2267e-20)
(1.06336 0.0732332 -3.77931e-20)
(0.893367 0.295913 0)
(1.10417 0.304636 -1.49618e-20)
(1.21306 0.295617 0)
(1.26275 0.278321 0)
(1.28046 0.25764 0)
(1.28195 0.236426 0)
(1.27601 0.216228 0)
(1.26722 0.19773 1.37126e-20)
(1.25773 0.181091 -1.27035e-20)
(1.24833 0.166197 -1.35381e-20)
(1.23915 0.152813 -1.04249e-20)
(1.23007 0.140687 -2.42152e-20)
(1.22089 0.129592 1.06626e-20)
(1.21143 0.11934 4.34348e-20)
(1.2015 0.109788 3.57921e-22)
(1.19093 0.100837 -1.06013e-20)
(1.17952 0.0924302 3.8354e-20)
(1.16704 0.0845709 8.32581e-21)
(1.1532 0.0772972 -9.47502e-21)
(1.13762 0.0705732 9.12241e-21)
(1.11981 0.0643126 1.62437e-20)
(1.09937 0.0596804 3.46595e-20)
(1.07652 0.0616404 -3.34211e-20)
(1.05118 0.0719451 -1.54355e-20)
(0.922386 0.296899 0)
(1.11532 0.315996 1.49489e-20)
(1.21209 0.308451 0)
(1.25387 0.289577 0)
(1.26702 0.266817 0)
(1.26628 0.243764 8.49218e-21)
(1.2596 0.222137 0)
(1.25092 0.202605 -7.74821e-21)
(1.24193 0.185238 -5.97086e-22)
(1.23311 0.169822 2.08409e-20)
(1.22446 0.156048 -1.29094e-20)
(1.21578 0.143618 0)
(1.20688 0.132279 5.84731e-21)
(1.19757 0.121829 1.18027e-20)
(1.18769 0.112112 1.74181e-20)
(1.1771 0.103012 -2.14188e-20)
(1.16564 0.0944529 0)
(1.15312 0.086409 1.50464e-20)
(1.13932 0.0788864 -1.02229e-20)
(1.12392 0.0718247 9.7563e-21)
(1.10651 0.0650897 -2.32098e-20)
(1.08666 0.0596632 1.31704e-20)
(1.06452 0.0601169 -4.74929e-21)
(1.04104 0.0703761 0)
(0.947831 0.300086 0)
(1.12197 0.324613 0)
(1.20685 0.317735 -6.46022e-22)
(1.24176 0.297824 -6.57721e-22)
(1.25134 0.273652 -7.87269e-23)
(1.24918 0.24935 -7.33813e-21)
(1.24235 0.226781 0)
(1.23419 0.206586 2.15694e-21)
(1.22595 0.188751 5.69613e-21)
(1.21789 0.17298 -7.36605e-21)
(1.20988 0.158917 0)
(1.20171 0.146238 0)
(1.19317 0.134679 -6.41871e-21)
(1.18413 0.124034 3.20961e-21)
(1.17442 0.114145 -8.91183e-21)
(1.16394 0.10489 0)
(1.15254 0.096181 0)
(1.14009 0.0879689 -5.24094e-21)
(1.12641 0.0802343 2.62934e-21)
(1.11127 0.0729183 -5.07272e-21)
(1.09428 0.0658645 7.20471e-21)
(1.07496 0.0595689 9.6048e-21)
(1.05332 0.0569856 -3.76273e-21)
(1.03246 0.0680811 4.84609e-21)
(0.968769 0.304785 0)
(1.12462 0.331358 0)
(1.19857 0.324569 0)
(1.22753 0.303908 0)
(1.23431 0.278737 0)
(1.23129 0.253581 5.27459e-21)
(1.22471 0.230405 -1.52475e-20)
(1.21731 0.209801 0)
(1.20997 0.191669 -9.2987e-21)
(1.20275 0.175652 -8.77614e-21)
(1.19544 0.161358 8.28913e-21)
(1.18784 0.148455 -7.84103e-21)
(1.17978 0.136677 2.37933e-22)
(1.1711 0.125823 1.38429e-20)
(1.1617 0.115736 6.73192e-21)
(1.15146 0.106299 0)
(1.14029 0.0974237 0)
(1.12808 0.0890547 1.15463e-20)
(1.11469 0.0811724 -1.11014e-20)
(1.09996 0.0737601 -1.07899e-20)
(1.08365 0.066737 5.09103e-21)
(1.06553 0.0602155 0)
(1.04559 0.0526121 -6.31767e-21)
(1.02252 0.0664427 5.72811e-21)
(0.984711 0.310391 5.07132e-21)
(1.12377 0.336898 0)
(1.18806 0.329807 0)
(1.21193 0.308496 0)
(1.21648 0.282541 -2.57579e-20)
(1.213 0.256772 2.42885e-20)
(1.20693 0.233201 2.13382e-20)
(1.20042 0.212346 -1.01124e-20)
(1.19404 0.194023 -1.01924e-20)
(1.18769 0.17782 8.4306e-21)
(1.18114 0.163328 8.75872e-21)
(1.17418 0.150206 -8.42927e-21)
(1.16665 0.138195 7.83976e-21)
(1.15845 0.127096 -7.00307e-21)
(1.14947 0.116759 -6.68102e-21)
(1.13962 0.107067 4.01025e-20)
(1.12884 0.0979331 8.90787e-23)
(1.11703 0.0893033 -1.17774e-20)
(1.10411 0.0811537 0)
(1.08997 0.073396 0)
(1.0746 0.0657011 5.36364e-21)
(1.05797 0.0581831 0)
(1.03902 0.0546386 5.13149e-21)
(1.01294 0.067579 1.90159e-20)
(0.995615 0.316395 9.31019e-20)
(1.11988 0.341732 0)
(1.17588 0.334085 6.46606e-20)
(1.19538 0.312094 0)
(1.19816 0.285425 2.56135e-20)
(1.19452 0.25916 3.32638e-21)
(1.18911 0.235308 7.29993e-20)
(1.18357 0.21429 -4.62001e-20)
(1.17818 0.195833 0)
(1.17273 0.179478 3.89999e-20)
(1.16696 0.164799 -3.63e-20)
(1.16068 0.151458 3.55652e-20)
(1.15376 0.139198 0)
(1.1461 0.127824 0)
(1.13763 0.117185 9.04603e-22)
(1.12828 0.107163 1.43749e-20)
(1.118 0.0976674 0)
(1.1067 0.0886406 -6.40737e-20)
(1.09432 0.0800387 2.41118e-20)
(1.0808 0.0716949 0)
(1.06616 0.063206 7.02429e-20)
(1.05016 0.0551601 -6.86017e-20)
(1.03116 0.05281 0)
(1.00784 0.0629658 0)
(1.00177 0.322416 -1.90039e-19)
(1.11338 0.346235 1.85071e-20)
(1.16235 0.337872 2.3225e-20)
(1.17811 0.315072 -8.1374e-20)
(1.1795 0.28765 0)
(1.17592 0.260915 -1.10227e-19)
(1.17129 0.236825 -4.91676e-20)
(1.16676 0.21568 9.36809e-20)
(1.16238 0.197112 -4.56058e-20)
(1.15783 0.180619 -4.12471e-20)
(1.15287 0.165761 -3.88849e-20)
(1.1473 0.152203 2.27108e-21)
(1.14104 0.139691 -1.18106e-21)
(1.13399 0.128031 6.52714e-20)
(1.1261 0.117074 -9.20034e-20)
(1.11733 0.106698 0)
(1.10762 0.0968089 2.9192e-20)
(1.0969 0.0873451 0)
(1.08514 0.0782511 7.79677e-20)
(1.07232 0.0693317 -7.68301e-20)
(1.05847 0.0602065 -2.37778e-20)
(1.04326 0.0517358 2.33399e-20)
(1.02486 0.049511 -1.24626e-19)
(1.00351 0.0574312 7.12398e-20)
(1.00361 0.328215 1.08612e-19)
(1.10455 0.350726 -1.95094e-20)
(1.14762 0.341516 -3.28446e-20)
(1.16019 0.317691 3.20549e-20)
(1.16052 0.289392 -6.65861e-20)
(1.1572 0.262144 5.71142e-20)
(1.15344 0.237808 -5.71083e-20)
(1.14995 0.216538 5.27629e-20)
(1.14658 0.197864 4.56031e-20)
(1.14296 0.181235 0)
(1.13883 0.166205 0)
(1.13402 0.152438 -7.48758e-20)
(1.12846 0.139686 3.51836e-20)
(1.12209 0.127756 3.54391e-20)
(1.11485 0.116497 1.64756e-19)
(1.10671 0.105788 -9.46958e-20)
(1.09763 0.0955319 -2.91027e-20)
(1.08757 0.0856672 0)
(1.0765 0.0761355 -1.1078e-19)
(1.06444 0.0667376 1.33336e-19)
(1.05145 0.0571271 0)
(1.03714 0.0482784 -7.84418e-20)
(1.01953 0.0457252 1.26715e-19)
(0.999769 0.051765 2.44024e-20)
(1.00137 0.333606 0)
(1.09346 0.355484 -4.27499e-20)
(1.13173 0.345251 -1.24283e-19)
(1.14158 0.320102 -3.74383e-20)
(1.14116 0.290746 3.12499e-19)
(1.13829 0.262902 -1.95247e-19)
(1.13548 0.238281 -6.00493e-21)
(1.13307 0.216864 -1.60595e-19)
(1.13074 0.198073 -1.03707e-19)
(1.12807 0.181308 4.65107e-20)
(1.12481 0.166114 -8.9664e-20)
(1.12082 0.152156 -3.95759e-20)
(1.11602 0.139187 7.68588e-20)
(1.11037 0.127017 -1.08065e-19)
(1.10384 0.115495 -3.3597e-20)
(1.0964 0.104495 3.20787e-20)
(1.08803 0.0939225 0)
(1.07869 0.0837149 0)
(1.06838 0.0738149 0)
(1.05715 0.0640284 1.12762e-19)
(1.04511 0.0540409 -2.19319e-19)
(1.03181 0.0448685 8.07565e-20)
(1.01506 0.0418319 -1.65226e-19)
(0.996734 0.0462372 1.04475e-19)
(0.995417 0.338751 0)
(1.08029 0.360746 4.5324e-20)
(1.11468 0.349194 1.21266e-19)
(1.12218 0.322376 0)
(1.12133 0.291743 -2.16497e-19)
(1.11909 0.263193 2.67085e-19)
(1.11734 0.238228 -7.85678e-21)
(1.11607 0.21663 -1.75792e-19)
(1.11481 0.197707 1.05977e-19)
(1.11314 0.180805 -3.00909e-21)
(1.11079 0.16546 9.17822e-20)
(1.10766 0.151335 -8.83714e-20)
(1.10368 0.138185 8.10047e-20)
(1.09882 0.125818 -2.14695e-21)
(1.09307 0.114081 -7.28674e-20)
(1.08639 0.102846 0)
(1.07879 0.0920169 6.84031e-20)
(1.07024 0.0815329 0)
(1.06075 0.071339 0)
(1.05041 0.0612508 0)
(1.03937 0.0509866 1.15858e-19)
(1.02713 0.0415649 -1.12837e-19)
(1.01133 0.0379952 1.14877e-19)
(0.994396 0.0409461 0)
(0.986109 0.343839 2.4044e-20)
(1.06498 0.36666 0)
(1.09622 0.3534 0)
(1.10183 0.324516 8.56162e-20)
(1.10087 0.292364 -7.73792e-20)
(1.09948 0.262974 -7.68627e-20)
(1.09891 0.237595 1.98939e-19)
(1.09885 0.215779 1.17677e-19)
(1.09874 0.196709 6.58074e-21)
(1.09812 0.179674 2.07233e-19)
(1.09675 0.164199 -9.38707e-20)
(1.09454 0.149942 8.79864e-20)
(1.09144 0.136654 -8.7394e-20)
(1.08744 0.124142 1.56753e-19)
(1.08252 0.112247 -7.47734e-20)
(1.07667 0.100839 0)
(1.0699 0.0898207 -6.83907e-20)
(1.06219 0.0791312 6.56687e-20)
(1.05358 0.0687199 -4.57199e-22)
(1.04419 0.0584171 -6.1649e-20)
(1.0342 0.0479756 0)
(1.02305 0.0383902 0)
(1.00826 0.0342882 -2.98264e-19)
(0.992713 0.0359415 2.26927e-19)
(0.973584 0.349037 -2.03003e-19)
(1.04749 0.37334 1.98688e-19)
(1.07598 0.357912 0)
(1.08031 0.326466 1.85874e-19)
(1.07961 0.292528 -1.72786e-19)
(1.07932 0.262155 1.48645e-19)
(1.0801 0.236292 8.50794e-21)
(1.08137 0.214222 0)
(1.08247 0.194998 -1.10883e-19)
(1.08298 0.177846 1.11829e-19)
(1.08267 0.162272 -3.21888e-22)
(1.08145 0.147926 -1.89852e-19)
(1.0793 0.134554 1.76585e-19)
(1.07622 0.121958 -8.64137e-20)
(1.07219 0.109971 8.25932e-20)
(1.06723 0.0984606 -7.48032e-20)
(1.06134 0.087325 7.5844e-20)
(1.05453 0.0765061 2.11516e-19)
(1.04686 0.0659593 7.0188e-20)
(1.03846 0.0555332 -6.46679e-20)
(1.02953 0.0450172 0)
(1.01949 0.0353612 0)
(1.00578 0.0307562 -6.4182e-20)
(0.991622 0.0312579 -1.80493e-19)
(0.957711 0.354588 4.89548e-19)
(1.02761 0.380888 -1.92008e-19)
(1.05353 0.362702 -4.78314e-20)
(1.05734 0.328101 -1.85278e-19)
(1.05737 0.292078 1.72101e-19)
(1.05849 0.26059 -8.13183e-20)
(1.06081 0.234182 -2.21844e-19)
(1.06355 0.21184 2.72881e-19)
(1.06599 0.192469 -2.40495e-19)
(1.06772 0.175231 1.14506e-19)
(1.06854 0.159603 0)
(1.06838 0.145225 0)
(1.06726 0.131835 1.86832e-19)
(1.06515 0.119224 -3.54335e-19)
(1.06209 0.107221 1.68829e-19)
(1.05807 0.0956841 -2.39636e-19)
(1.05311 0.0845111 7.9347e-20)
(1.04724 0.0736462 -7.26678e-20)
(1.04054 0.0630526 1.43941e-19)
(1.03316 0.0526007 1.38182e-19)
(1.02531 0.0421174 -5.40061e-19)
(1.01639 0.0324875 2.62845e-19)
(1.00382 0.0274274 -2.6371e-19)
(0.991049 0.0269198 2.44674e-19)
(0.938049 0.360845 -4.20156e-19)
(1.00478 0.389514 0)
(1.02852 0.367577 -5.50025e-20)
(1.0326 0.32916 4.95486e-20)
(1.03395 0.290766 0)
(1.03687 0.258072 0)
(1.04099 0.231087 1.46429e-19)
(1.04536 0.20848 -2.79588e-19)
(1.04927 0.188995 -1.26267e-19)
(1.05233 0.171721 1.19264e-19)
(1.05437 0.156103 -1.11557e-19)
(1.05537 0.141765 0)
(1.05533 0.128434 0)
(1.05427 0.115891 9.01939e-20)
(1.05221 0.103954 -8.65984e-20)
(1.04918 0.092477 0)
(1.0452 0.0813548 -2.44549e-19)
(1.04031 0.0705355 8.00192e-20)
(1.03461 0.059992 -7.67747e-20)
(1.02827 0.0496187 -1.44928e-19)
(1.0215 0.0392778 2.82949e-19)
(1.0137 0.0297712 0)
(1.00232 0.0243191 6.68592e-20)
(0.99092 0.0229438 2.0759e-19)
(0.913688 0.368319 4.30899e-19)
(0.978277 0.399289 2.92938e-19)
(1.00028 0.372196 6.34944e-20)
(1.00568 0.329239 1.19537e-19)
(1.00917 0.288278 0)
(1.01437 0.25433 1.87146e-19)
(1.02058 0.226784 3.27933e-19)
(1.0268 0.203957 -3.00228e-19)
(1.03234 0.184425 2.75368e-19)
(1.03685 0.167194 -3.46605e-21)
(1.04021 0.15167 -2.35381e-19)
(1.04243 0.137462 3.27321e-19)
(1.04354 0.124282 -3.09175e-19)
(1.04358 0.111901 9.46031e-20)
(1.04258 0.100125 -9.0105e-20)
(1.04057 0.0888034 8.98475e-20)
(1.03761 0.0778295 1.65665e-19)
(1.03373 0.0671566 -1.63598e-19)
(1.02905 0.0567686 2.38021e-19)
(1.02376 0.0465839 -5.35293e-19)
(1.01806 0.0364959 3.71118e-19)
(1.01134 0.0272082 -7.34999e-20)
(1.0012 0.0214408 2.82059e-19)
(0.991159 0.0193398 -2.61582e-19)
(0.882883 0.377881 -3.05081e-19)
(0.94718 0.410074 -2.41768e-19)
(0.96807 0.375987 5.74609e-20)
(0.976298 0.327815 -1.00903e-19)
(0.982872 0.284196 -1.14478e-19)
(0.990961 0.249011 -4.79391e-19)
(0.999623 0.221005 -2.52473e-19)
(1.00793 0.198064 4.62816e-19)
(1.01525 0.178594 -2.81115e-19)
(1.02133 0.161517 1.27553e-19)
(1.0261 0.146197 1.1842e-19)
(1.02962 0.132229 -2.26092e-19)
(1.03194 0.119309 -4.28805e-21)
(1.03312 0.107196 0)
(1.03322 0.0956879 -9.76785e-20)
(1.03227 0.0846269 -9.00174e-20)
(1.03034 0.0739086 -3.32538e-21)
(1.0275 0.0634921 2.56823e-19)
(1.02385 0.0533726 -2.45699e-19)
(1.0196 0.0434909 3.95778e-19)
(1.01495 0.0337651 -3.05564e-19)
(1.00929 0.0247889 4.53884e-19)
(1.0004 0.0187961 -2.89443e-19)
(0.99169 0.0161111 0)
(0.842761 0.391307 -3.00158e-19)
(0.910423 0.421497 5.6741e-20)
(0.931186 0.378105 0)
(0.944212 0.324102 -2.40023e-19)
(0.954985 0.277916 1.06409e-19)
(0.966696 0.241704 2.98275e-19)
(0.978211 0.213448 0)
(0.988838 0.190576 -3.28217e-19)
(0.998105 0.171328 1.49082e-19)
(1.00587 0.154554 -1.35117e-19)
(1.01214 0.139578 1.23499e-19)
(1.01702 0.125979 -1.19954e-19)
(1.02059 0.113445 4.39446e-19)
(1.02295 0.10172 -3.16385e-19)
(1.02417 0.0905976 4.42976e-22)
(1.0243 0.0799138 1.91369e-19)
(1.02343 0.0695678 9.01808e-20)
(1.02162 0.0595259 -8.70355e-20)
(1.01901 0.0497937 0)
(1.01578 0.0403315 0)
(1.01213 0.031075 -7.85902e-20)
(1.00749 0.0225017 -3.91378e-19)
(0.999859 0.0163858 2.99374e-19)
(0.992437 0.0132515 2.46637e-19)
(0.789103 0.412785 4.14712e-19)
(0.865859 0.431905 1.34986e-19)
(0.88875 0.377113 5.24401e-21)
(0.909209 0.317001 -3.42033e-19)
(0.925639 0.268713 0)
(0.941732 0.231959 -2.19588e-19)
(0.956526 0.203804 0)
(0.969709 0.181268 3.39768e-19)
(0.981068 0.162463 -1.52836e-19)
(0.990615 0.146177 -1.64383e-21)
(0.99845 0.131712 2.61308e-19)
(1.00472 0.118637 1.21247e-19)
(1.00958 0.106629 -1.15113e-19)
(1.01314 0.0954274 1.06489e-19)
(1.01548 0.0848174 2.09375e-19)
(1.0167 0.0746361 -1.98502e-19)
(1.01687 0.0647864 -9.67351e-20)
(1.0161 0.0552427 0)
(1.0145 0.0460194 9.01791e-20)
(1.01228 0.0370922 8.7138e-20)
(1.00959 0.0284094 -2.48017e-19)
(1.00592 0.0203338 2.40313e-19)
(0.999504 0.0142115 -3.10742e-19)
(0.993309 0.0107395 2.56769e-20)
(0.712349 0.447482 -5.50476e-19)
(0.808966 0.435939 -8.27512e-20)
(0.839796 0.370318 1.5253e-19)
(0.871498 0.304987 6.44222e-19)
(0.895256 0.255798 -1.89061e-21)
(0.916436 0.219315 1.05049e-19)
(0.934861 0.191775 -2.03131e-19)
(0.950794 0.169941 -3.482e-19)
(0.96435 0.151855 1.61808e-19)
(0.975741 0.136282 1.43664e-19)
(0.985175 0.122522 -1.32879e-19)
(0.992868 0.110141 0)
(0.999014 0.098816 -1.1782e-19)
(1.00376 0.0882813 1.12576e-19)
(1.00722 0.0783211 -3.17937e-19)
(1.00951 0.0687746 4.09467e-19)
(1.01071 0.0595506 -2.97097e-19)
(1.01095 0.0506309 2.86888e-19)
(1.01034 0.0420368 -2.37894e-22)
(1.00907 0.0337562 -2.65046e-19)
(1.00729 0.0257494 -1.71299e-19)
(1.00453 0.0182842 8.20211e-20)
(0.999319 0.0123302 -8.12531e-20)
(0.994164 0.00852244 -7.3745e-20)
(0.590066 0.483321 2.89632e-19)
(0.73242 0.423834 0)
(0.785386 0.353152 2.70369e-19)
(0.832293 0.286468 -2.18816e-19)
(0.864691 0.238479 -1.44708e-19)
(0.891394 0.203397 1.21969e-19)
(0.913641 0.177136 2.02216e-19)
(0.932422 0.156445 0)
(0.948219 0.1394 0)
(0.961468 0.124797 3.04052e-19)
(0.9725 0.111955 -1.41052e-19)
(0.981601 0.100456 0)
(0.989013 0.0899796 1.21413e-19)
(0.99492 0.080264 -1.16102e-19)
(0.999467 0.0710972 2.19346e-19)
(1.00278 0.0623233 1.0553e-19)
(1.00497 0.053858 -2.03684e-19)
(1.00616 0.0456894 -9.66371e-20)
(1.00649 0.037843 -2.442e-21)
(1.00612 0.0303165 9.24573e-20)
(1.0052 0.0230819 8.70368e-20)
(1.0033 0.0163357 -1.72106e-19)
(0.999309 0.0107504 2.47318e-19)
(0.995009 0.00657045 4.33649e-19)
(0.0173814 -0.0620681 6.68626e-20)
(0.121165 -0.133956 -4.83396e-20)
(0.211087 -0.187756 1.34568e-22)
(0.241798 -0.194252 0)
(0.257002 -0.182352 -9.60382e-19)
(-0.0973957 -0.0254528 -7.57684e-19)
(0.044922 -0.0920154 -1.03501e-18)
(0.143767 -0.171819 8.99211e-20)
(0.202486 -0.205656 9.6404e-19)
(0.226755 -0.201071 3.90452e-19)
(0.239937 -0.152911 8.70774e-19)
(0.0866409 -0.0294897 1.15063e-18)
(0.0605811 -0.116372 9.92804e-19)
(0.144593 -0.18949 0)
(0.18974 -0.211513 0)
(0.211834 -0.194545 -3.09924e-19)
(0.224774 -0.135058 -8.70524e-20)
(0.161505 -0.018792 -4.05715e-19)
(0.0708853 -0.140312 -9.90504e-19)
(0.141394 -0.203528 3.76506e-20)
(0.178863 -0.217146 -4.94379e-19)
(0.200337 -0.192083 4.75837e-20)
(0.216991 -0.126783 -4.02815e-20)
(0.205332 -0.0193936 2.14732e-19)
(0.0776415 -0.162167 9.64633e-19)
(0.137301 -0.215274 -3.505e-20)
(0.169958 -0.22339 4.62179e-19)
(0.192473 -0.194299 0)
(0.215208 -0.128831 -3.74467e-20)
(0.233463 -0.0328727 -2.35007e-19)
(0.0819645 -0.181368 1.4906e-20)
(0.133147 -0.225154 -8.28448e-21)
(0.162451 -0.23023 1.27753e-20)
(0.187205 -0.200465 -1.05619e-20)
(0.216691 -0.138964 0)
(0.253033 -0.0557121 -6.22483e-20)
(0.0847161 -0.198146 0)
(0.128954 -0.233655 0)
(0.155819 -0.237821 0)
(0.183414 -0.210054 2.49207e-21)
(0.219367 -0.155177 -2.16661e-21)
(0.267391 -0.0846251 6.07541e-20)
(0.0865179 -0.212572 -3.67924e-21)
(0.124462 -0.241171 -2.51008e-19)
(0.149649 -0.246263 5.85796e-21)
(0.18022 -0.222612 0)
(0.221971 -0.175976 0)
(0.27795 -0.117596 0)
(0.0877563 -0.224549 0)
(0.119443 -0.247951 2.3741e-19)
(0.143523 -0.25554 2.24581e-20)
(0.17696 -0.237662 -1.88857e-20)
(0.223771 -0.200268 0)
(0.285557 -0.153349 -2.79783e-20)
(0.088486 -0.233917 0)
(0.113732 -0.254134 2.89596e-20)
(0.13707 -0.265547 3.2955e-19)
(0.17312 -0.254732 -3.62207e-20)
(0.224317 -0.227254 -2.20536e-19)
(0.290725 -0.191221 -5.50549e-20)
(0.0884556 -0.240514 0)
(0.10723 -0.259781 -4.89189e-19)
(0.129983 -0.276124 2.08249e-20)
(0.168287 -0.273368 0)
(0.223305 -0.256346 2.49801e-19)
(0.293765 -0.230875 -2.20515e-19)
(0.0873539 -0.244295 -2.89599e-20)
(0.0998717 -0.264891 4.59384e-19)
(0.122027 -0.287056 -1.02443e-18)
(0.162124 -0.293141 0)
(0.220493 -0.287075 0)
(0.294823 -0.272144 -2.15118e-19)
(0.0848643 -0.245269 0)
(0.0916267 -0.269406 9.22988e-19)
(0.113038 -0.298077 6.79946e-19)
(0.154355 -0.313614 0)
(0.215657 -0.31904 4.83075e-19)
(0.29395 -0.314971 4.32216e-19)
(0.0807404 -0.243505 0)
(0.0825081 -0.273202 7.90185e-22)
(0.102933 -0.30886 0)
(0.144771 -0.334307 0)
(0.208586 -0.351859 -9.60785e-19)
(0.291098 -0.359344 0)
(0.0748471 -0.239089 0)
(0.0726082 -0.276083 -9.507e-19)
(0.0917102 -0.318995 -8.45712e-20)
(0.133231 -0.354658 7.09988e-20)
(0.199053 -0.385087 5.96251e-19)
(0.2861 -0.405226 -2.0884e-19)
(0.0672039 -0.232091 -1.77629e-18)
(0.062127 -0.277755 -3.03887e-20)
(0.079475 -0.32796 -7.79849e-19)
(0.119654 -0.373979 7.15317e-20)
(0.186801 -0.418135 4.74625e-19)
(0.27868 -0.45252 0)
(0.0580602 -0.222507 -2.34766e-21)
(0.0513671 -0.277778 0)
(0.06644 -0.335081 7.95741e-19)
(0.104015 -0.391396 -7.25302e-20)
(0.171544 -0.450182 -3.66818e-21)
(0.268409 -0.500964 -9.79329e-20)
(0.0479827 -0.210161 1.8816e-18)
(0.040733 -0.275514 -1.03921e-18)
(0.0529164 -0.339492 8.97349e-20)
(0.0863233 -0.405814 -1.45136e-19)
(0.152951 -0.480072 -4.21421e-19)
(0.254634 -0.549998 0)
(0.0379041 -0.194565 -2.01675e-18)
(0.0306891 -0.270061 6.63576e-20)
(0.0392703 -0.340117 -7.5703e-19)
(0.0665908 -0.415907 0)
(0.13068 -0.506181 0)
(0.236392 -0.598679 -3.98044e-19)
(0.0290258 -0.17484 1.91332e-18)
(0.0216572 -0.260222 1.12945e-18)
(0.0258675 -0.335691 -1.39331e-21)
(0.0448017 -0.42019 0)
(0.104384 -0.526257 -1.20152e-19)
(0.212027 -0.64558 6.07887e-19)
(0.0224478 -0.149932 9.0863e-20)
(0.0140201 -0.244631 -3.72648e-20)
(0.0131231 -0.324927 7.46395e-19)
(0.0210787 -0.417291 1.66629e-19)
(0.0738791 -0.53708 -6.90729e-20)
(0.178271 -0.688811 0)
(0.0191287 -0.119985 -1.9408e-18)
(0.00844491 -0.22208 -1.21228e-18)
(0.00185719 -0.306726 7.66679e-19)
(-0.00375312 -0.406312 4.71347e-21)
(0.0399101 -0.533642 2.09595e-19)
(0.127296 -0.728269 -5.63626e-19)
(0.0203971 -0.0870976 -3.462e-20)
(0.00653876 -0.190443 -4.00398e-21)
(-0.0059484 -0.279144 -1.05666e-18)
(-0.0276915 -0.385737 -7.37042e-19)
(0.00504205 -0.505496 6.69295e-20)
(0.0412475 -0.77826 3.58599e-19)
(0.0285091 -0.0457096 2.20867e-18)
(0.0114667 -0.133211 1.50326e-18)
(-0.010935 -0.225159 1.18576e-18)
(-0.058373 -0.340829 8.25907e-19)
(-0.000152633 -0.438769 2.72059e-19)
(-0.12075 -0.912687 4.17717e-19)
(0.396407 0.489432 2.58878e-19)
(0.646031 0.389106 0)
(0.732373 0.321924 -3.52334e-19)
(0.794237 0.26061 2.48245e-19)
(0.835232 0.216447 2.03753e-19)
(0.86738 0.184044 -3.6122e-19)
(0.893395 0.159786 1.09597e-19)
(0.914979 0.140717 9.69106e-20)
(0.932981 0.125063 2.5626e-19)
(0.948044 0.111699 -5.45512e-19)
(0.960628 0.100001 1.45384e-19)
(0.971089 0.0895752 0)
(0.979717 0.080117 -6.35155e-20)
(0.986733 0.0713757 6.00423e-20)
(0.99231 0.0631478 5.71966e-20)
(0.996592 0.0552858 -1.07058e-19)
(0.99971 0.0477119 -5.27507e-20)
(1.00179 0.0404176 -2.00858e-19)
(1.00297 0.0334284 2.90633e-19)
(1.00342 0.0267458 -9.26167e-20)
(1.00327 0.0203462 -1.81147e-19)
(1.00219 0.0143636 1.75416e-19)
(0.999375 0.00926395 1.70768e-19)
(0.995984 0.00494587 -2.30593e-19)
(0.339729 0.374414 3.10001e-20)
(0.587977 0.329356 0)
(0.688423 0.279533 0)
(0.760219 0.228346 -1.66597e-19)
(0.808293 0.19001 0)
(0.845225 0.161385 0)
(0.874679 0.139795 1.13202e-19)
(0.898871 0.122804 -9.65754e-20)
(0.918951 0.108879 2.62035e-21)
(0.935728 0.0970232 7.9077e-20)
(0.949769 0.0866885 2.2102e-19)
(0.961505 0.0775247 -1.38497e-19)
(0.97127 0.0692508 6.35043e-20)
(0.979319 0.0616344 -1.21471e-19)
(0.985852 0.0544865 -5.7257e-20)
(0.99103 0.0476704 -1.10674e-19)
(0.994997 0.0411143 1.60057e-19)
(0.997884 0.0348091 2.05581e-19)
(0.999836 0.0287758 -1.9921e-19)
(1.00102 0.0230147 4.83702e-20)
(1.00154 0.0174991 1.85113e-19)
(1.00119 0.0122984 -1.79197e-19)
(0.999412 0.00771175 4.39249e-20)
(0.997055 0.00370055 0)
(0.338031 0.277486 -2.3369e-19)
(0.551752 0.265065 5.86439e-20)
(0.655223 0.231647 1.57312e-19)
(0.731886 0.19155 -1.82208e-19)
(0.784915 0.159967 -1.56355e-19)
(0.82563 0.135824 6.45787e-20)
(0.857991 0.1174 -2.83798e-19)
(0.884468 0.102862 1.03073e-19)
(0.906412 0.0909648 -8.92e-20)
(0.92475 0.0808611 -8.12089e-20)
(0.940121 0.0720948 1.82746e-21)
(0.953015 0.0643662 -7.07601e-20)
(0.963811 0.0574295 0)
(0.972795 0.0510774 -1.15684e-21)
(0.980189 0.0451399 5.95923e-20)
(0.986173 0.0394932 0)
(0.990899 0.03407 5.49346e-20)
(0.994507 0.0288575 -1.04831e-19)
(0.997138 0.0238689 5.05265e-20)
(0.998951 0.019102 -4.84215e-20)
(1.00006 0.0145301 -2.36036e-19)
(1.00034 0.0101787 1.36538e-19)
(0.99945 0.00622655 -2.20891e-19)
(0.99801 0.00270139 1.99213e-19)
(0.346445 0.196432 4.22242e-20)
(0.5288 0.202317 0)
(0.631063 0.181842 -2.08487e-19)
(0.709412 0.152042 1.8065e-19)
(0.765556 0.127296 1.55314e-19)
(0.809036 0.10791 0)
(0.843705 0.0929488 5.75125e-20)
(0.872072 0.081132 -1.54266e-19)
(0.895604 0.0714941 9.41368e-20)
(0.915302 0.063348 0)
(0.931845 0.0563282 7.76308e-20)
(0.945761 0.0501889 7.07129e-20)
(0.957462 0.0447256 6.63368e-20)
(0.967263 0.0397613 -6.45382e-20)
(0.975407 0.0351501 -5.96177e-20)
(0.98209 0.030783 -5.79609e-20)
(0.987471 0.0265962 -1.10734e-19)
(0.991694 0.0225702 -1.60224e-19)
(0.994903 0.0187081 2.57005e-19)
(0.997246 0.0150052 -9.94388e-20)
(0.998839 0.0114371 -6.2069e-22)
(0.999643 0.00800469 4.59472e-20)
(0.999486 0.00480744 1.793e-19)
(0.998805 0.00190736 -1.39249e-21)
(0.356325 0.127246 0)
(0.514197 0.142904 -1.29049e-19)
(0.613973 0.131998 0)
(0.69229 0.111134 0)