/*--------------------------------*- C++ -*----------------------------------*  =========                 |
  \      /  F ield         | OpenFOAM: The Open Source CFD Toolbox
   \    /   O peration     | Website:  https://openfoam.org
    \  /    A nd           | Version:  11
     \/     M anipulation  |
\*---------------------------------------------------------------------------*/
FoamFile
{
    format      ascii;
    class       volScalarField;
    object      U;
}
// * * * * * * * * * * * * * * * * * * * * * * * * * * * * * * * * * * * * * //

dimensions      [0 1 -1 0 0 0 0];

internalField   nonuniform List<scalar> 
2880
( 
0.07151723469055787
0.14016069592361458
0.21944385501529337
0.268317847067022
0.33848742785599334
0.44961967799806435
0.09988377880152047
0.16967273931931645
0.24223597868760469
0.28688883420538364
0.3493219428537427
0.4197298964354273
0.11322571993474431
0.1802797553400362
0.24626260118765156
0.2896555820848339
0.3530138192096123
0.4261919886447677
0.1252209982944131
0.1880509875397849
0.24731008431509743
0.29000700559583753
0.355366695460092
0.43326081072606476
0.13788518508099856
0.19454067650732923
0.2475830301700184
0.2898701560508561
0.35596662268190293
0.4355293914091949
0.15002959103849461
0.1997614595750289
0.2464753005468936
0.28931382875164946
0.35489468674041036
0.433978407320012
0.16101186181368757
0.20334033874673804
0.2452926721548228
0.2884752171038497
0.3525412661990605
0.42940980370264764
0.1697939887730583
0.20571450208928058
0.2443630853052142
0.28741216190601226
0.3500562726456311
0.4238087332423671
0.17711719395376313
0.20739378821567883
0.24325865397351404
0.28616943574336606
0.3472465659192399
0.418069610144031
0.1828542571070998
0.20861964845614178
0.24203882559260895
0.28538946705324364
0.3453991166846509
0.4141637473056528
0.1868420976598335
0.2096468613496337
0.2426288321308168
0.2855928588148613
0.34515298793826765
0.4127372332942747
0.18906858850845853
0.21084223442289102
0.2443384766049966
0.2874716324612239
0.3463152670388518
0.4121997022051555
0.18930154803798346
0.21158628171824628
0.2467486052521659
0.290776495064527
0.3492418644785862
0.41426615351215335
0.18771252945285657
0.21209568172976972
0.24919135757512434
0.2951708163263839
0.35450657672873576
0.419705785264883
0.18388915504216763
0.2119950749422117
0.2514910948473895
0.2996751157572754
0.36029962303026797
0.4259285619327083
0.17840344418106976
0.21133043898385181
0.25371086898911893
0.30363448261537246
0.3659222395345603
0.43254182030185734
0.17146988549438433
0.21007612436823003
0.25586142877936535
0.3063749247070471
0.3708844454968202
0.4391430661456035
0.16242518241122483
0.20771279524248384
0.25679078079149414
0.3085777677106476
0.37473909232131525
0.4448758167905971
0.15146015739706406
0.20345239344369967
0.25720892293255276
0.3093506523739078
0.37683817536791886
0.4493986080466171
0.13837652422944208
0.1966419561305307
0.25636386628955404
0.30809349759290705
0.3773434429128552
0.45155707550479657
0.12359865090852078
0.18756609783549558
0.25380329195745155
0.3060566568008966
0.37556800513011596
0.45023338157044324
0.10889344482718501
0.17579046279196714
0.24900684349678698
0.3021162545160676
0.3721802820846831
0.443942926385887
0.0928926842135913
0.16100020328914066
0.24000893215859967
0.29400698048062746
0.3688360327614164
0.43448553574093834
0.06365247420292917
0.12809882626631214
0.2134762513537497
0.26822413518297217
0.3608327421560755
0.4355451179852657
0.8225408638802685
0.9053265238970242
0.9472527075566459
0.9719866129272292
0.9882316726163524
0.9996694204169526
1.011303284288654
1.0258382026624022
1.0419501043142727
1.0582694624451527
1.0730820707460587
1.0864273720583026
1.096131155578633
1.1023638397193978
1.1057100927436123
1.1062837995608312
1.104490965347654
1.100542869926811
1.0950905379978162
1.0878714394905151
1.079273608219344
1.0676929742435395
1.0537381353394564
1.038307574330993
0.7220596068921837
0.8684626876813925
0.9288238769908017
0.9598927017381538
0.9813357244991749
0.9966643362139352
1.010482669004526
1.0289214544089655
1.0492011407940032
1.0672732772914386
1.0820967624872084
1.0939669532909166
1.1027806645141303
1.1077802464198285
1.1085777923518843
1.1077218319217572
1.1045612457257683
1.10000313660372
1.0934691435044355
1.0857804010733552
1.0767793589479828
1.065201218309707
1.0507887205197386
1.0353013719178852
0.6545608677389302
0.8177109533935224
0.8939699604798624
0.9381857144474982
0.9663848464820319
0.9883936420979811
1.0081150630904323
1.0318694431401119
1.0541325437386495
1.0742987248739793
1.09016352440561
1.1002964788450218
1.1066393378430155
1.1090123889401458
1.1093976599083337
1.1072754746534867
1.1032112615366114
1.097963450205109
1.0905268628235747
1.0826169508303884
1.0725058714560758
1.0605546556476777
1.0466206445254407
1.030671706511021
0.61235680687109
0.7646976826848045
0.8516179438911562
0.9063143731120082
0.9436205208217016
0.9737462106160639
1.0038168041278819
1.0324357681045064
1.0574545585765647
1.0780754131623393
1.0936359413270087
1.1027142541062185
1.1069816033322084
1.1081702045986233
1.1070999177521457
1.1043608190169
1.0989179506225337
1.0933404612533217
1.0859773424590997
1.0770771713844303
1.0669616824725658
1.0553976654378108
1.041087576367708
1.025681725808071
0.5834047945991476
0.71949864593277
0.8101067995272412
0.8720303228201005
0.9165997263952153
0.9557179145359548
0.9942469733529532
1.0287697980241395
1.0569526565743583
1.0774984588944656
1.091860400006766
1.0999806341321083
1.1031988510463466
1.1037998120984591
1.1020722923838133
1.0984925340893732
1.0934463045117584
1.0876238795287896
1.080046842611491
1.0712893559735652
1.0615155365220685
1.05041113179503
1.0360737897843533
1.0207937390121615
0.5606051559043843
0.6827520342709328
0.7719512615662918
0.839058809438596
0.8911031153041304
0.9387105602286943
0.983925659804231
1.0225379781175445
1.0527649345463816
1.0734691453638392
1.085985053163857
1.092828679012694
1.0961113658296606
1.0956916777540322
1.0942552583003466
1.0905607296019948
1.0862999997328708
1.080072283812252
1.0727861079619514
1.0643037026059838
1.0552558277772912
1.0444574480866307
1.0303556393115045
1.0152956312839336
0.5407897995056979
0.6526920490789357
0.7404722075507882
0.8104572987950266
0.8698317309293401
0.926385084897982
0.9757485771721722
1.0164495010546055
1.045933288925719
1.065578365944664
1.0774363095067638
1.083436049098422
1.0864107351388614
1.0867154038234792
1.0855468499725436
1.082326769951058
1.078000910702776
1.072474910766244
1.0656852376386026
1.057965113090358
1.0492927555888718
1.0386746961325066
1.0252228875792397
1.0118091709091952
0.524415144633012
0.6280534238186632
0.7147146745214411
0.788182543837968
0.854064096696985
0.9166692264760989
0.969452464547043
1.010558224384171
1.038976102357094
1.056147116873579
1.0676690057691476
1.07332408754799
1.0765553901161935
1.0769109383173023
1.076166485780556
1.0733240644881512
1.0693981354751259
1.0648920034997083
1.0587934635452296
1.0515127554751618
1.0439086863504847
1.0341807324956829
1.0216072565019605
1.0083784515756762
0.5111436921849984
0.609639300526911
0.6965587955354321
0.7715218838079191
0.8450666664525464
0.9115127259383291
0.9661021399420255
1.006016221529206
1.0312796357416816
1.0475090201082944
1.0574549820185557
1.0631186815403506
1.0663748435604659
1.067267868080735
1.066404055285031
1.0642672303199838
1.0618448386710309
1.0575243378442098
1.0521663735456954
1.0462767583262593
1.0388349876030745
1.0304423722127753
1.0189020013080323
1.0078329914042614
0.5024573434276441
0.5973160884437482
0.684722101368255
0.7645663854288526
0.8435736548213211
0.9116631930028658
0.9642198658632046
1.000001886604454
1.023110600735547
1.0375738882542815
1.047458854047825
1.0527544121879264
1.0562386993164872
1.0577253571455485
1.05718061945789
1.0560535604102985
1.0539540215355123
1.0503951692958133
1.0469570255233895
1.0415777790338154
1.0360862745293384
1.0289618046400537
1.0192154780592197
1.0093524779002516
0.49738005774006366
0.5923035525113729
0.6800851210973557
0.7650380471027716
0.8473149558804595
0.9150951550126897
0.9638417316007187
0.9956082295395445
1.016236663498188
1.0296510982161151
1.0384299302256528
1.044308911465373
1.0476220058306829
1.0491223912166918
1.049512431368881
1.0487690760622843
1.04725491707465
1.0449407287345105
1.0421319684292318
1.0391259766917214
1.0348655229631805
1.0293375817290114
1.021385051481133
1.0126557107986307
0.4958374326584708
0.5920308865192261
0.6818052092309898
0.7738595940256703
0.8575515623852061
0.9216852718253996
0.9645583895160983
0.9922909216033886
1.0108604489635358
1.0232531578334227
1.0310278151199852
1.0368852975103813
1.0404315006746319
1.0426881751797443
1.0431501039517275
1.0429575128903925
1.0421106474243225
1.0410678729685015
1.0400925166537434
1.0385250466724305
1.0365574455911761
1.0325082300339028
1.0255844879107596
1.017702807128406
0.4982336692204293
0.5954209539225429
0.6920639551611958
0.7895629843364966
0.8717609956645318
0.929685068591955
0.9669862380082352
0.9908029033182617
1.0067485402872764
1.0185984144384557
1.0262398357831508
1.031881570942966
1.0357997441122062
1.0375490376527334
1.0380967955594511
1.039059835066249
1.0401619109181501
1.04064445310772
1.0411152131144148
1.0412596484328664
1.0396360254336754
1.0370145834047804
1.030975305146868
1.0238990191410442
0.5035718721444058
0.6029362498497582
0.7075686716025337
0.8093714934700436
0.8868548278284583
0.9372367547157451
0.9697451085864535
0.9902477951705763
1.0049455745957327
1.0161126485062824
1.0228935845080547
1.0276375601883718
1.0315003944405583
1.0350002200715385
1.0373443072513748
1.0394270869203805
1.0408522551244423
1.0423208303168594
1.0439439686986232
1.0453920320047392
1.0452876943809968
1.042873770219861
1.0374499376621402
1.0298678056530126
0.5123954601691211
0.6160569782509311
0.7300108710596794
0.8321220069421386
0.9019280161482814
0.9454483779655714
0.9726175069913707
0.9917170265086248
1.0051101324129463
1.0142179267332077
1.021533805808917
1.026879078803882
1.0312614163512754
1.0336080587422687
1.036452165698353
1.0400868717836262
1.043975931160074
1.047181011483644
1.0493236511369388
1.0506973253552132
1.050237211074424
1.0482372918536234
1.0427765189730558
1.0352321345849758
0.5236316444281408
0.6368011817782382
0.7584262807359223
0.8548172151533027
0.9158032185867809
0.952798966957159
0.9769131329278519
0.9931130889190177
1.005054103699777
1.0145583053313152
1.0207271472379094
1.0256930301126972
1.0299769917738515
1.0349589007086208
1.0398385250168118
1.0442232260049011
1.0479302030800792
1.0519506083763364
1.0549215840635908
1.05706471265313
1.0568632178583683
1.054398157984448
1.0481408755686492
1.0399671332014409
0.5362180375960173
0.663671716396021
0.7911831990864784
0.8783790865293026
0.9296916274718482
0.9603069846699452
0.9814192768740974
0.9961279358921578
1.0065789861640198
1.014556855496779
1.0208941137485332
1.0267908232170695
1.0320014390389818
1.0383024370774956
1.0442092707587025
1.04993456999302
1.0549578892652747
1.0585913487759797
1.0612638938594297
1.06301945006691
1.0622812300228341
1.059027726298018
1.0522226514802338
1.0433567687484457
0.5501078282074179
0.6974817046647919
0.8255895579355113
0.8995457434819442
0.9411993854488794
0.9678225796598744
0.9856995777732175
0.9988623990523195
1.0086339690635482
1.016436980907045
1.0233677522616293
1.0295870640138127
1.0371144789779705
1.0439193231140664
1.0501350217986902
1.0556022517126977
1.061054744502066
1.065335717212398
1.0680537370264118
1.0680023950239081
1.0668186490475409
1.062535355921805
1.0543333058558102
1.0441325964356458
0.5682396121813398
0.7390205294516052
0.8567249731439346
0.918210983913538
0.9525194096389329
0.9748222260236262
0.9901296546106253
1.0014936382737083
1.010234891813417
1.0188722834396315
1.0254281003840255
1.0334419742499736
1.0414814023869219
1.0499359180379786
1.0567397983750078
1.0632126806887514
1.0674403857634402
1.0715201630692273
1.073386604920177
1.073356713777988
1.0699917942509873
1.064665507544018
1.0555874138115406
1.04407372522817
0.5922509435652682
0.7841849623612908
0.8849356864107377
0.9340188288432811
0.9617693505861707
0.9804309752495316
0.9935152894088355
1.0040593069654253
1.012449805921039
1.0205658942921962
1.029923873847163
1.0402124858851116
1.048873281739508
1.0570372041837308
1.0638703164642624
1.0698451568838943
1.0745860840780224
1.0777767392641915
1.078168017476786
1.0771068957440133
1.0725980763367762
1.065583955019836
1.05579950673498
1.0435060558497173
0.6268839918856484
0.8280056530528731
0.9091092380551175
0.9481453140476496
0.9700338640625413
0.9854446012410625
0.9968453238275561
1.0064652712725517
1.0157151854178106
1.026092756730342
1.0359909501977302
1.0464007081003661
1.056422515661156
1.064890160994956
1.0719757849724647
1.0772095288975252
1.080996657131089
1.0828396690259712
1.0821101505493518
1.0797086338895594
1.0737036351786113
1.0657037130396885
1.0548811643473803
1.0414823103623378
0.6803511162079814
0.8653724045302217
0.9279326311012064
0.9581500788754963
0.9762527904511112
0.9891983186661435
0.999630408502691
1.0094837377916746
1.01929377911615
1.030156357753293
1.0427428991280143
1.0548781241568312
1.0645468604047268
1.0725125300235847
1.079554383594568
1.0839856993951849
1.0864962005429157
1.0871866167865667
1.0851346296073259
1.0808587804307876
1.0746609969879042
1.0652353389018085
1.0539637994391544
1.0401066497628444
0.7525603952574376
0.8939519756792482
0.9407443647318473
0.9651780694680197
0.9804388122659515
0.9925843899450553
1.002019131319267
1.0120067247077618
1.0244830925872281
1.0375679485142155
1.0507872996528347
1.0630978117431031
1.0734187276885585
1.08152140416416
1.0869628504149769
1.0901472960384926
1.0919527078905658
1.0903806820077047
1.0875301706666916
1.081859648952327
1.0749650585771418
1.0652361572449986
1.052741034750788
1.0378912375345726
0.8331458646750088
0.9107448325570952
0.9463374714385553
0.9685841568612145
0.9828496903397218
0.9944294671040937
1.0040206804433554
1.0161656645271988
1.0305334476875558
1.045357382218544
1.059207314628972
1.071640480758395
1.0816898420112417
1.0888091237962318
1.0936701850596648
1.0958804954940464
1.0954662294761912
1.0932008502166917
1.0888932041929047
1.0825308571761836
1.0746513769827362
1.0643715724226674
1.050979524979573
1.036810469691471
0.07325447545911841
0.14699867027654495
0.22943222360919033
0.27838819672371234
0.34854285328044105
0.4540168717083114
0.10480042473265389
0.17903305547734183
0.2531882556440584
0.2965035537951148
0.35800737441857733
0.42650471886964647
0.1194773681685501
0.189952155065192
0.25702687056215556
0.2990259953766116
0.3626364080733398
0.43587387029183866
0.13223718841285828
0.19788853809708906
0.25744541061379245
0.29934006078505954
0.36508984497011326
0.4446727182495495
0.1455817756887702
0.20420547324938151
0.2567030156146931
0.2990690408223491
0.36585867114033244
0.44800758650525946
0.15849928266072638
0.20889460861664685
0.2558245183112721
0.2983504118021206
0.3654887608917019
0.4471886045418823
0.17049067191474515
0.2120976864553366
0.25410265255004433
0.2973024803931766
0.36369347195428964
0.4435830316231569
0.18033531785726878
0.21492431979451715
0.2522800430636701
0.2958532689278418
0.3611777887983559
0.43818674904902066
0.1883610601471422
0.21698986846822038
0.2514738766650371
0.2943953963950409
0.35829211079170326
0.43220206069562256
0.1945764369465551
0.21853973168306853
0.2513441290381073
0.29395585823834874
0.35623960943532845
0.4278716031857783
0.1990793639996125
0.21971989461824282
0.2516977505004266
0.29402345705403954
0.35554360720185224
0.42621440285149326
0.20123028176800406
0.22062221246834884
0.25304039168147363
0.29510446552656683
0.35653304232281186
0.4262203503310184
0.20132106387292753
0.22127123076680372
0.2549334844048847
0.2982565242305552
0.3598082004504904
0.42792595111940784
0.1993877299573866
0.22157868636764574
0.25740241461561647
0.30266714576503007
0.3644219811839343
0.432040086658229
0.1951763566972413
0.22151499441079603
0.2598738779861462
0.30719080701631196
0.3696973053105792
0.4376280522539638
0.18920789754831374
0.22072727469263329
0.2619815135501613
0.3112377446258241
0.37482499584343987
0.44357286787070077
0.1816664550774547
0.21925107247788866
0.2633858149839915
0.314358681816432
0.3791444023706349
0.449080661961113
0.17201811354889587
0.2164788524952138
0.2648882088493137
0.3162334063125292
0.3826314846826311
0.4539220837701013
0.16033846650124492
0.21224685193982237
0.26519060346557316
0.3163148508591645
0.3844019669181049
0.4575845353062137
0.14651119353016834
0.20580842087311313
0.2645959187077024
0.3157465087857463
0.3842811687387495
0.45844976105645835
0.13031616007558627
0.19638209936153375
0.262237655858461
0.3132551714900191
0.38207228455163433
0.45619001217969063
0.11450184262412778
0.18425684383713473
0.2572995718970482
0.3092657264895114
0.3783365585411231
0.449189205295934
0.09722357573876916
0.16904028737544108
0.2483301518252432
0.301181439603583
0.3745250299575894
0.43919362142994584
0.0647035868729948
0.1340490222656515
0.22051585387640257
0.27419969507859643
0.3663048878075726
0.4375585374416912
0.8229634197882909
0.9051226956079161
0.9433342767832906
0.967273925143147
0.9823810423374786
0.9944823200510678
1.0070798640611591
1.0205904476221572
1.03725063860978
1.054106417370589
1.0686376249190213
1.0810330976933091
1.0897648866342082
1.0962272666721227
1.0989305131141094
1.1000615200973418
1.098692365418039
1.0950222197472663
1.0897181642377545
1.0825937649692199
1.0737440548883717
1.0633817323297126
1.049786632263817
1.0345347159834535
0.7284013722918338
0.8730613980558991
0.9290865599553921
0.9594543044561733
0.9782713622606849
0.9930623261026438
1.0082020260609548
1.026842884754423
1.0451787272076725
1.062294319341334
1.0781323113580359
1.0891507154184188
1.0975850993401894
1.101997239150531
1.1037367759282755
1.1029735710415782
1.1004803160582064
1.0954216372848253
1.089300022203679
1.08196225453317
1.0728089098670168
1.0617708791240847
1.0482859500015753
1.0330054387178464
0.6658493879020003
0.8275481176961702
0.9007916968870535
0.9419773566177153
0.9680624818499831
0.9874148450646092
1.0088780314561243
1.0313266952293287
1.0521604928040642
1.0707830006774595
1.0856438371376638
1.0960749470563764
1.1026021557525818
1.105770867064314
1.106013409283569
1.1043676377244571
1.100668307746374
1.0952385553289736
1.0886819425891392
1.081152811637451
1.0716984969271397
1.0602186149392032
1.0465786825332424
1.0309108176358734
0.6265427753577767
0.7809073303863189
0.8649649069500899
0.9163755695739366
0.9507117814683193
0.9796548344408107
1.006395865826463
1.0332038460141093
1.057048519042106
1.0768005858402347
1.0909149113701162
1.1000004133830212
1.105402588123966
1.1071212868979547
1.1062533823868816
1.103607220097776
1.0994320408802871
1.09395637588176
1.087005687515284
1.0785155010167766
1.0687331964869375
1.057937196102698
1.0436335247139703
1.028816673678105
0.5994940145452933
0.7395680842996958
0.8290254218750974
0.887904221058274
0.9311596641256442
0.9668643881417804
1.0017128326487978
1.0326998428693237
1.0590490281061724
1.078784710286061
1.092705869108404
1.1006866835631295
1.1044135402316786
1.1053405289506393
1.1041836916353827
1.1007318312133583
1.0960164038254958
1.0902598991672154
1.083706683397757
1.0750129229159064
1.0654262346913677
1.0543394340635077
1.040442430752803
1.0257585199445076
0.577773807032086
0.7043005463284884
0.7955433377103522
0.8612086045940726
0.911075904345623
0.9554846159088596
0.9962131428631753
1.0308878930963383
1.0587536322415096
1.078105041183218
1.0907361829233315
1.0974867915252728
1.1001424424785102
1.1008053158665614
1.099026508597674
1.0957975947067762
1.091267843674566
1.0858910208456438
1.0792886699585045
1.0712131481876486
1.0619147440660042
1.0517572038625769
1.037414155696583
1.0234188028848772
0.5591740431565435
0.6760183105827138
0.7669008615806461
0.8375453266947042
0.8944612507522406
0.9459312543096876
0.9915761001199264
1.0288636334794308
1.0562040580141505
1.0744999738127023
1.0855126469248852
1.091824451322051
1.0944512391685677
1.0944594207946572
1.0927095467319625
1.0897643932154755
1.0860767754439948
1.0801183472472777
1.073780351007185
1.0666920488645115
1.0579288930802204
1.0474221758140705
1.0339289422736349
1.02041145823647
0.543194190978948
0.65290610483479
0.7437157136763971
0.8183150685285022
0.8818175439937329
0.9404326696461144
0.9891548951269376
1.0270236137478488
1.0539892827809465
1.070247060960292
1.079150133843182
1.0848459652105515
1.0873610953452646
1.0873010715024054
1.0858450900342713
1.0830222930584725
1.0794080149681662
1.0746574199381165
1.0686445980062675
1.062024649712551
1.0541333226490568
1.0445778009545763
1.0317432734607304
1.0179078650015172
0.5298779327496693
0.63449402384092
0.7262990517354031
0.8042083886093038
0.8750875809145111
0.9384326641131878
0.9890320663607175
1.0261222760076565
1.0496268582748798
1.0641384697213456
1.072951555812977
1.0778291904058408
1.0799923206709217
1.0798934743975155
1.0795784866245004
1.0773764961328507
1.0746668299078241
1.0699088897920168
1.064831677015376
1.0578372630680577
1.0503634134706785
1.0413616420686815
1.029566473810727
1.0167742061695175
0.5207409221607521
0.6227310770281935
0.7152508392986133
0.7965906613646002
0.874177206125974
0.9410123414041823
0.9914123637237716
1.0252792826490345
1.0459630847062802
1.0589820189738879
1.0670735403408436
1.0720941657720378
1.073584725373107
1.0740622552611154
1.07433425571126
1.0725556369359495
1.069462281287867
1.0657861818393388
1.0610727675355462
1.0549269659599374
1.0477552139235906
1.0397246103638411
1.0285367134438326
1.0164442616827232
0.5162790151014879
0.6178378583428767
0.7102095502667926
0.7973375764737385
0.8798584668827233
0.9467547233207403
0.9936748332718974
1.023829009842727
1.042721534828613
1.0544950346298199
1.0618760837109873
1.0663737875180481
1.0690458667201137
1.0697933583918697
1.0692295410858113
1.0682957130007402
1.066245590535627
1.0626333447845326
1.05871713769384
1.05377729785377
1.0475195114107618
1.039906199880935
1.0295302460201359
1.018222519129872
0.514671621547372
0.6168976215603242
0.7125453364775713
0.806780489968518
0.890534065235622
0.9540680436049418
0.9961302908507077
1.0231310407774503
1.0401067037536016
1.0510208509967374
1.0582437334055503
1.062971419858213
1.0653344688256803
1.066573147971945
1.0670507725677847
1.0657215095020218
1.0638360686693296
1.061262818923543
1.05775559442861
1.053698075276514
1.0483687191501154
1.0414750339855785
1.0317036410006208
1.0204754015895576
0.5151474052348316
0.6193960487513627
0.7203083462161395
0.8209169750405109
0.9036935836404405
0.9624555042865084
0.9992633516105032
1.0225737788359026
1.0382327689922797
1.0493613509236435
1.055956698951405
1.0609725770468408
1.0636121000431449
1.0655136937632745
1.0658001699604975
1.065395841235831
1.0633899445286499
1.060985829331657
1.0590034286326748
1.0557897282298783
1.0513094587328533
1.0446833616515356
1.035279828997776
1.0246232890154117
0.5205636266960854
0.6256732867428654
0.7342114066762654
0.8385126185343107
0.9173119065417344
0.9691114684898943
1.0013660212142412
1.0225167577841856
1.0375460552819225
1.0476653146454513
1.05484668372979
1.0600027095192877
1.0635170487552135
1.0653530147093513
1.0656910594077307
1.0656533263516539
1.0650353205589485
1.0641417411694067
1.0623544768789814
1.0593188596165577
1.0551606176376032
1.0494195279775893
1.0399731608923597
1.0287504524796924
0.5286845231056346
0.6372346766112914
0.7537666357039788
0.8573442244985465
0.9292334253866159
0.9740267348383418
1.003250043583285
1.0224837502560775
1.036646559540353
1.0471116842338004
1.0545631800053339
1.0597898795127005
1.0631486037251607
1.066316152226944
1.067541803065659
1.0682440004855935
1.0691982752655276
1.0684706923763452
1.0672033553324733
1.0647105429370929
1.0608469382772072
1.0543964361683476
1.0449207468123256
1.0337200009127283
0.5385410773361395
0.6554721970541392
0.7793170614976134
0.8774545570903433
0.9388610189252481
0.9782997569818467
1.0035990990747865
1.0220607709623608
1.0356427648181668
1.0460489491072038
1.0541433482809655
1.0604866128581325
1.0652220984584266
1.0682213719804365
1.070457594466648
1.07223250863969
1.073633530239778
1.0742554823041417
1.073005418540211
1.0704367380009927
1.0658094307254642
1.0594954960789382
1.0500477650057567
1.0382995972000384
0.5494343125203266
0.6804743186558623
0.8096597099677698
0.8960305455223351
0.9481454946709315
0.9810691396295819
1.0044167576982403
1.0222007097517969
1.035322560841203
1.0461163373583795
1.0545727168344972
1.0611444297701158
1.0663073498226985
1.0706419272898908
1.0750064570946378
1.0776429541790578
1.079313039395812
1.0799214083596007
1.0789283491177062
1.076605662531163
1.0718290586331376
1.0645665395115336
1.0546653552832312
1.0421221848510989
0.5623398025150161
0.7127265336625381
0.8396967384629341
0.9133936981284696
0.9567023692636802
0.9844969228268771
1.0046433112306052
1.0218879297458987
1.0350339701244582
1.045925006791673
1.0552510203700278
1.062714334426006
1.0693376347491559
1.074607571836007
1.079504408473262
1.0831203683652677
1.0855449485532498
1.0860385617877457
1.0848586693653957
1.0821996160513943
1.0767262015539516
1.0694594445833965
1.0588534228372664
1.0453537481642947
0.5792565687651227
0.7515519417358159
0.8677672830096295
0.9290100091643114
0.963990445671455
0.988475824010491
1.0061757591145302
1.0216128046480955
1.0350330394845644
1.0459646377063854
1.0559234396147519
1.0645598105369496
1.0729105517599298
1.0796059587725932
1.084319966559873
1.087552387249598
1.090881822792174
1.0912996172317762
1.090012040378909
1.0869514423991766
1.0811093895946264
1.0734770116649786
1.061512041489339
1.0474538332682635
0.6020881303652756
0.7941594274507309
0.8930930636651996
0.9421604028105214
0.9714144762940047
0.9919328669580831
1.0092377814204967
1.0232073016742786
1.0356195697439676
1.04725729343577
1.057974382490336
1.0675091119465858
1.07572531153164
1.083907378739461
1.089212876460215
1.0930259494623964
1.094827148785124
1.0958766289558615
1.0939092343665031
1.0908520387809755
1.0842964892280795
1.075611301603109
1.0633522172825136
1.0494292275136354
0.635339464355834
0.8354488954364012
0.9144958541594995
0.9526513258286571
0.9780871512232631
0.9963690919632787
1.0122018303941498
1.0258566126577402
1.0379492819781295
1.048110587567936
1.0602800921429316
1.070906758926881
1.0801642880754447
1.0867957206193242
1.0929041201620548
1.0973430526834085
1.0991254451862449
1.098948807711197
1.096851567622797
1.092191678706659
1.0855382048355733
1.0765536611688264
1.064427112585228
1.049175416291683
0.6873702030428629
0.8707285580059048
0.9304982492626298
0.9622360072760241
0.9831474845491052
1.0011429787633055
1.0152527493585035
1.0288295059820045
1.0411976277069164
1.053172937588486
1.064131591630935
1.0742433140212153
1.0841610463540055
1.0915518456092295
1.0966569172219491
1.1001143285255617
1.1015609732830376
1.1007961923694256
1.098016539127463
1.0927652325275041
1.085691588578566
1.0759562638050728
1.0633283060851053
1.048471905675276
0.7571191205989397
0.8959684669804112
0.9411910471845288
0.9685597158940935
0.9880353650000686
1.00543242531717
1.0196670748148964
1.0320209451570714
1.0445408586942806
1.0573914089116883
1.0692453748410922
1.0791256623137102
1.0877433729844528
1.0949880768900477
1.099997151168886
1.1023474509674276
1.1026002446856733
1.1017696111051132
1.097854114465459
1.0917902795515568
1.0845991567453166
1.0744934482069
1.0618598856182304
1.0465923970836337
0.8324292593461271
0.9078278671814318
0.9457544880281237
0.9719380930636597
0.9923234957037774
1.0082236410613437
1.0232580751246774
1.035993164605935
1.0498480155643664
1.06287523771576
1.075059005418632
1.0850747388585675
1.0924696580703201
1.097962813246991
1.1018291245972769
1.1035455408328871
1.1029354943668455
1.1007876051127146
1.0962696793893458
1.090298426809137
1.0822102080151565
1.0721436600681562
1.0588744381811153
1.0431135194322874
0.07491047571566674
0.15166191695544587
0.23558002010740234
0.28510332465719407
0.3539307787832845
0.45602886597848563
0.10599937932533816
0.1832433065546835
0.25768004178119436
0.30209069672109296
0.3619382398680298
0.42603341624404484
0.12142410643430773
0.1938963035138895
0.26045811452137396
0.30278351782911833
0.36283037407683194
0.43106457311680435
0.13511792461427066
0.20137765637027602
0.2605407956242427
0.300917465371314
0.3631271476189455
0.4368369370203374
0.1488578381852082
0.2076901644397904
0.25937611475141387
0.29924759934800704
0.36189186418230723
0.43815218992029487
0.1620896661303569
0.21245877781412473
0.2571974058452183
0.2972125337915319
0.35938624362330496
0.4357376359195719
0.17373085608284647
0.21559935058781535
0.255226469062676
0.2948517570350098
0.35577514292780954
0.4301532139022691
0.18337764516909802
0.2175616394979719
0.25334800340795427
0.2925994926470835
0.3518615668615874
0.42328181855776487
0.19145572562677457
0.2188281068300162
0.2513418778656909
0.2902683606286975
0.3479377143352119
0.41646594361954276
0.19773701714174421
0.21984779008713518
0.24954685734362828
0.28861301398153494
0.3445120441540242
0.41110851151616756
0.20208366926845225
0.22075304078250532
0.24985002552285626
0.28828457009667563
0.34363590430196295
0.4097868905182765
0.2043864261430006
0.22178771061131658
0.25119313788988196
0.2896514198599646
0.3444669376017031
0.4101563963851053
0.20482288500969342
0.22236408288650014
0.25324730175962484
0.2929917392813129
0.3482240133991938
0.41390554063220875
0.20288294842950522
0.22273852595376117
0.25566953800798997
0.2977835448958367
0.35455243862406777
0.42046945592153084
0.19870688811814222
0.22275770435399217
0.25839659219837596
0.3028299097449879
0.3612733228145366
0.4282594789863901
0.1925838478522492
0.2221663237477481
0.26112653261370433
0.30738816691353027
0.36792496048034906
0.4364691954702824
0.1847212283605189
0.22099240341188067
0.2636378307666742
0.31123370582981674
0.3740638961601262
0.4440802279307311
0.17490727441832787
0.2188226799452766
0.2653815458266313
0.31437644947424254
0.378801219977524
0.45083117636673514