/*--------------------------------*- C++ -*----------------------------------*\
  =========                 |
  \\      /  F ield         | OpenFOAM: The Open Source CFD Toolbox
   \\    /   O peration     | Website:  https://openfoam.org
    \\  /    A nd           | Version:  11
     \\/     M anipulation  |
\*---------------------------------------------------------------------------*/
FoamFile
{
    format      ascii;
    class       volScalarField;
    location    "0.4";
    object      k;
}
// * * * * * * * * * * * * * * * * * * * * * * * * * * * * * * * * * * * * * //

dimensions      [0 2 -2 0 0 0 0];

internalField   nonuniform List<scalar> 
2880
(
0.00382645
0.00835594
0.0160079
0.0243209
0.0320502
0.0511084
0.0158185
0.0236617
0.0345393
0.0436886
0.0517721
0.0648081
0.0197369
0.0310744
0.0438209
0.0540139
0.0629328
0.0738819
0.021812
0.0360295
0.0501058
0.0611609
0.0707511
0.0809357
0.0233829
0.0399464
0.0550197
0.0667571
0.0768638
0.0867425
0.0244191
0.0432861
0.0591006
0.0713726
0.0818882
0.0916862
0.0249459
0.0462658
0.0625648
0.0752549
0.0861039
0.0959329
0.0250067
0.0489341
0.0654976
0.0785263
0.0896603
0.0995754
0.0254557
0.0511799
0.0679299
0.0812566
0.0926546
0.102693
0.026116
0.052968
0.0698777
0.0834927
0.0951625
0.105373
0.0266979
0.054283
0.0713544
0.0852703
0.0972497
0.107711
0.0271146
0.0551226
0.07237
0.0866163
0.0989742
0.109808
0.0272941
0.0554935
0.0729274
0.0875467
0.100383
0.111764
0.0272152
0.0553916
0.0730164
0.0880627
0.101507
0.113665
0.0268848
0.0548024
0.0726221
0.0881444
0.102355
0.115582
0.0263365
0.0537005
0.0717053
0.0877528
0.102905
0.117557
0.0256412
0.0520465
0.070209
0.0868102
0.103089
0.119595
0.0249755
0.0497822
0.0680505
0.0851975
0.102781
0.121641
0.0247629
0.04682
0.0651108
0.0827349
0.101765
0.123552
0.0238314
0.0432579
0.0612141
0.0791514
0.0996959
0.125044
0.0222391
0.038826
0.0560495
0.0740184
0.0960114
0.125593
0.0200819
0.0330155
0.0489882
0.0665614
0.0897356
0.124384
0.0160265
0.0243882
0.0383354
0.0549525
0.0788595
0.119977
0.00379877
0.00832134
0.0182576
0.0334779
0.0587351
0.110074
0.148017
0.185215
0.191393
0.183902
0.167966
0.150779
0.133275
0.116568
0.101217
0.0874689
0.0754031
0.0650145
0.056272
0.0491094
0.0434072
0.039083
0.0359635
0.0338551
0.0325919
0.0320301
0.031996
0.0322589
0.0329576
0.0341418
0.111216
0.148843
0.165052
0.166971
0.162122
0.151313
0.13869
0.125658
0.112905
0.100844
0.0897153
0.0796291
0.0706847
0.06303
0.0565974
0.0512625
0.0469566
0.043607
0.041126
0.0394148
0.0383463
0.0378573
0.0378748
0.0380818
0.0986456
0.125848
0.14388
0.152157
0.153522
0.151056
0.144931
0.137476
0.129572
0.121649
0.113995
0.106775
0.100026
0.093658
0.0877584
0.0823446
0.0773946
0.0728634
0.0687269
0.0649545
0.0616216
0.0586037
0.0562824
0.0538871
0.097106
0.116448
0.132497
0.143563
0.150106
0.153444
0.154141
0.153752
0.152614
0.151143
0.149671
0.148257
0.146842
0.145306
0.143497
0.141265
0.13854
0.135295
0.131437
0.126812
0.121502
0.115497
0.109768
0.102234
0.0995888
0.114818
0.129002
0.141025
0.15072
0.158594
0.16493
0.17044
0.175407
0.18007
0.184532
0.188754
0.192607
0.195904
0.198446
0.200048
0.200572
0.200183
0.198916
0.19624
0.191801
0.186285
0.180093
0.173056
0.103224
0.116466
0.129439
0.141646
0.152896
0.163303
0.172955
0.182082
0.190757
0.198989
0.206699
0.213736
0.219911
0.225046
0.228991
0.231634
0.232922
0.232935
0.231986
0.22984
0.226291
0.222067
0.217663
0.213666
0.106941
0.119178
0.131293
0.143156
0.154678
0.165829
0.176556
0.186844
0.196604
0.20571
0.214003
0.221314
0.227487
0.232405
0.235992
0.238218
0.239106
0.23884
0.237651
0.235343
0.232215
0.228756
0.225341
0.22238
0.110363
0.122004
0.133379
0.14454
0.155475
0.166137
0.176443
0.18625
0.195397
0.203707
0.211005
0.21714
0.222005
0.225553
0.227801
0.228831
0.228792
0.227968
0.226398
0.224312
0.221966
0.219572
0.217187
0.214822
0.113406
0.124639
0.135335
0.14561
0.15549
0.164946
0.173893
0.182172
0.189613
0.196052
0.20135
0.205425
0.20826
0.20992
0.210549
0.210362
0.209615
0.208539
0.207355
0.206199
0.205128
0.204173
0.203363
0.20242
0.11612
0.127095
0.137219
0.146615
0.155332
0.16333
0.170559
0.176946
0.182349
0.186668
0.18985
0.191911
0.192944
0.193117
0.192688
0.191934
0.191194
0.190781
0.190977
0.191884
0.193242
0.195126
0.197237
0.198909
0.11863
0.129543
0.139297
0.148009
0.155737
0.162502
0.168263
0.172961
0.176598
0.179185
0.180788
0.181547
0.18167
0.181417
0.18106
0.180843
0.180957
0.181493
0.182565
0.184443
0.187087
0.190347
0.194094
0.198378
0.121097
0.132222
0.14192
0.150302
0.15744
0.163393
0.168207
0.171931
0.174628
0.176403
0.17741
0.177854
0.177963
0.17797
0.178058
0.178331
0.178819
0.179464
0.18012
0.180534
0.18124
0.182222
0.184088
0.188731
0.123696
0.135393
0.145441
0.153965
0.161065
0.166848
0.171418
0.174893
0.177411
0.179142
0.180281
0.181036
0.181593
0.182086
0.182547
0.182913
0.18296
0.182466
0.181081
0.178316
0.174684
0.170301
0.166432
0.166855
0.126602
0.139311
0.150176
0.159363
0.167017
0.173296
0.178359
0.182368
0.185497
0.187926
0.189826
0.191338
0.192533
0.193407
0.193775
0.193561
0.192244
0.189034
0.183788
0.177671
0.169994
0.160964
0.151384
0.14669
0.129984
0.144213
0.156374
0.166721
0.17545
0.182773
0.188876
0.193929
0.198084
0.201466
0.204163
0.206186
0.207453
0.207927
0.20701
0.203979
0.19861
0.19199
0.184242
0.174799
0.163931
0.152252
0.140312
0.132387
0.134
0.150304
0.164202
0.176099
0.186247
0.194895
0.202221
0.208351
0.213365
0.217272
0.220092
0.221641
0.22129
0.218848
0.213915
0.207482
0.199499
0.189732
0.178124
0.165179
0.151643
0.138427
0.126194
0.118501
0.138796
0.157745
0.173707
0.187349
0.198971
0.208832
0.217057
0.223698
0.228767
0.23201
0.232935
0.23131
0.227482
0.22165
0.213868
0.203787
0.191581
0.177663
0.162689
0.147473
0.132988
0.120239
0.109928
0.105218
0.144487
0.166614
0.184757
0.20004
0.212797
0.223267
0.231503
0.237428
0.240359
0.240146
0.237915
0.233116
0.225684
0.215501
0.202872
0.18823
0.172192
0.155557
0.139256
0.124304
0.111645
0.102064
0.0961242
0.0954364
0.151129
0.17683
0.196941
0.213367
0.226446
0.236388
0.242831
0.245106
0.244361
0.241253
0.234783
0.224716
0.211849
0.196663
0.179793
0.162051
0.144381
0.127831
0.113393
0.101784
0.0934208
0.0885276
0.0874049
0.0889187
0.158667
0.188034
0.209477
0.226094
0.238175
0.245185
0.247298
0.2461
0.241425
0.232323
0.219515
0.20394
0.186395
0.167759
0.14899
0.131168
0.115382
0.102372
0.0924192
0.0855157
0.0815849
0.0805184
0.0812366
0.0841209
0.166881
0.199464
0.221198
0.236617
0.245107
0.247714
0.245772
0.239201
0.227282
0.211738
0.193651
0.17416
0.154399
0.135445
0.118429
0.104195
0.0930024
0.0846763
0.0789067
0.0754261
0.0741408
0.0744542
0.0759825
0.0796289
0.175401
0.209973
0.230737
0.242589
0.24648
0.244148
0.236035
0.221589
0.203463
0.183208
0.162332
0.142133
0.123725
0.108071
0.0955408
0.0858821
0.0786369
0.0734019
0.0698895
0.068062
0.0679492
0.0687856
0.0710586
0.0749095
0.183987
0.218484
0.23677
0.243725
0.242053
0.233429
0.217008
0.196642
0.174616
0.152837
0.132692
0.115165
0.10082
0.0895215
0.0807163
0.0738827
0.0686537
0.0648236
0.0624291
0.0616447
0.0620422
0.0635153
0.0663326
0.0700108
0.193379
0.224842
0.238662
0.240048
0.232214
0.215025
0.192806
0.169304
0.146836
0.126826
0.109975
0.0964035
0.0856213
0.0769988
0.0700867
0.0645787
0.0603412
0.0574189
0.0559249
0.0558756
0.0566853
0.0586611
0.0615629
0.0650035
0.00494309
0.0162913
0.0496003
0.0893168
0.113446
0.11664
0.0179452
0.034868
0.0725699
0.11283
0.149583
0.184095
0.0225789
0.0488557
0.0874077
0.128235
0.169099
0.206998
0.0249605
0.0582632
0.0966695
0.13794
0.179587
0.215817
0.0271802
0.0649191
0.102834
0.144191
0.185559
0.219855
0.0298239
0.0695259
0.106946
0.148182
0.189143
0.221977
0.0319205
0.0726257
0.109525
0.150594
0.191411
0.223342
0.0334871
0.0745267
0.11086
0.151831
0.192937
0.224519
0.0345661
0.0754131
0.111121
0.152133
0.19403
0.225777
0.0351881
0.075402
0.110412
0.151631
0.194828
0.227223
0.0353634
0.0745618
0.108797
0.150374
0.195361
0.228869
0.0351763
0.0729393
0.106314
0.148352
0.195586
0.23065
0.0346578
0.0705524
0.102984
0.145508
0.195431
0.232461
0.0339012
0.0674377
0.0988189
0.141727
0.194623
0.234178
0.0328838
0.063662
0.0938201
0.136858
0.192876
0.235765
0.0315892
0.0592903
0.0879915
0.130709
0.189796
0.237136
0.0299929
0.0543892
0.0813494
0.123061
0.184913
0.238113
0.028003
0.049038
0.0739439
0.113705
0.177638
0.238307
0.0251967
0.0433785
0.0658893
0.102499
0.167255
0.237273
0.02374
0.0379391
0.0574099
0.0894699
0.153034
0.23355
0.0222883
0.0330442
0.0487728
0.074969
0.134133
0.224971
0.0203751
0.0281908
0.0398855
0.0594097
0.109377
0.207029
0.0166387
0.0219567
0.0295044
0.042173
0.0779286
0.167847
0.00460099
0.00788188
0.0121745
0.0190977
0.0374411
0.118319
0.205895
0.230264
0.237916
0.232657
0.21654
0.192945
0.168074
0.144789
0.124578
0.107837
0.0943306
0.0834067
0.0744751
0.0671746
0.0612505
0.0565912
0.05319
0.0510886
0.050324
0.0506179
0.0518029
0.0539772
0.0567896
0.0599348
0.223255
0.235041
0.234359
0.221754
0.197559
0.171282
0.146779
0.125767
0.108443
0.0943377
0.0827524
0.0731613
0.0652558
0.0588073
0.0536865
0.0498158
0.047152
0.0456739
0.0453558
0.0458506
0.0472162
0.0493293
0.0519536
0.0547893
0.232674
0.23645
0.228569
0.206878
0.179093
0.152831
0.130316
0.11172
0.0964302
0.0837444
0.0731814
0.0644533
0.0573398
0.0516749
0.0473108
0.0441231
0.042023
0.0409503
0.0408495
0.0414138
0.042761
0.0447005
0.0470717
0.0495996
0.236612
0.234928
0.219621
0.191441
0.163084
0.138384
0.117846
0.100819
0.0865968
0.0747186
0.0649049
0.056932
0.0505921
0.045671
0.0419667
0.0393148
0.037599
0.0367425
0.0366862
0.0372053
0.0383912
0.0400775
0.0421526
0.0443823
0.237508
0.230978
0.208272
0.177881
0.150348
0.1272
0.107876
0.0916411
0.0780407
0.0668073
0.0577131
0.0505083
0.044913
0.0406493
0.0374751
0.0352054
0.0337147
0.0329258
0.0327883
0.0331665
0.0340888
0.0354638
0.0372151
0.0391576
0.236895
0.225591
0.197268
0.166707
0.140325
0.118125
0.0993505
0.0835398
0.0704563
0.0598853
0.0515444
0.0450883
0.0401596
0.0364363
0.033659
0.0316392
0.0302527
0.0294267
0.0291214
0.0292795
0.0298668
0.0308805
0.0322817
0.0339446
0.235228
0.21957
0.187846
0.157841
0.132194
0.11033
0.0917518
0.0762783
0.0637549
0.0538989
0.0463074
0.0405353
0.0361696
0.0328695
0.0303767
0.0285086
0.0271455
0.0262177
0.025692
0.0255555
0.0257713
0.0263641
0.0273781
0.0287575
0.233219
0.213494
0.180401
0.150777
0.125297
0.103374
0.0848754
0.0697844
0.0578928
0.0487717
0.0418841
0.0367063
0.0327978
0.0298199
0.0275266
0.0257452
0.0243604
0.0233014
0.0225339
0.0220508
0.0218604
0.0219857
0.0225341
0.023596
0.231334
0.208109
0.174523
0.144976
0.119223
0.0970513
0.0786518
0.0640285
0.0528169
0.0444096
0.0381514
0.0334707
0.0299245
0.0271896
0.0250371
0.023306
0.0218841
0.0206963
0.0196987
0.018876
0.0182384
0.0178348
0.0178107
0.0184001
0.229863
0.203704
0.169931
0.14008
0.113758
0.0912833
0.0730589
0.058978
0.0484558
0.0407078
0.0349916
0.0307171
0.0274553
0.0249055
0.0228577
0.0211628
0.0197126
0.0184273
0.0172492
0.016142
0.0150911
0.0141089
0.0132425
0.0127809
0.228981
0.200316
0.166421
0.13589
0.108806
0.0860466
0.0680811
0.0545854
0.0447259
0.0375635
0.0323019
0.0283549
0.0253171
0.0229123
0.0209495
0.0192922
0.0178386
0.0165081
0.0152335
0.0139544
0.0126104
0.0111274
0.00929498
0.00652275
0.228755
0.197966
0.163843
0.132287
0.104328
0.0813325
0.0636929
0.05079
0.0415406
0.034883
0.0299958
0.026311
0.0234509
0.0211637
0.0192764
0.0176655
0.0162381
0.0149198
0.0136464
0.0123558
0.0109803
0.0094529
0.00773323
0.0055264
0.229073
0.196732
0.162107
0.129211
0.10031
0.0771303
0.0598559
0.0475239
0.0388175
0.0325855
0.0280021
0.0245257
0.0218071
0.0196168
0.0177982
0.0162395
0.0148572
0.0135853
0.0123685
0.0111547
0.00988834
0.00851605
0.0070088
0.0052267
0.229978
0.196694
0.161172
0.126635
0.0967447
0.073421
0.0565232
0.044719
0.0364838
0.0306037
0.0262634
0.0229507
0.0203437
0.0182327
0.0164747
0.0149676
0.0136351
0.0124175
0.0112654
0.0101335
0.00897462
0.00774912
0.00645106
0.00500519
0.231499
0.197856
0.160977
0.124544
0.0936245
0.0701762
0.0536428
0.042312
0.0344768
0.028883
0.0247339
0.0215481
0.0190281
0.0169811
0.0152753
0.0138163
0.0125332
0.0113709
0.0102848
0.00923474
0.00818075
0.00709419
0.00598223
0.00480396
0.233654
0.200299
0.16132
0.122931
0.0909329
0.0673587
0.0511632
0.0402475
0.0327456
0.02738
0.0233786
0.0202891
0.017836
0.0158405
0.0141799
0.0127654
0.0115306
0.0104239
0.00940407
0.00843532
0.00748363
0.00652823
0.0055819
0.00462201
0.236638
0.203979
0.16269
0.121821
0.0886436
0.0649289
0.0490376
0.0384784
0.0312479
0.02606
0.0221698
0.0191521
0.01675
0.0147965
0.0131757
0.0118035
0.0106165
0.00956574
0.00861263
0.00772454
0.00687189
0.00603887
0.0052394
0.00446152
0.240519
0.208976
0.164789
0.121141
0.0867155
0.0628478
0.0472232
0.0369632
0.0299486
0.0248954
0.0210864
0.0181208
0.0157576
0.0138392
0.0122549
0.0109238
0.00978458
0.00879015
0.00790373
0.00709489
0.00633701
0.00561705
0.00494746
0.00432241
0.245436
0.215428
0.167553
0.120849
0.0851079
0.0610746
0.0456786
0.0356649
0.0288181
0.0238638
0.0201119
0.0171832
0.01485
0.0129619
0.011412
0.0101216
0.00903042
0.0080926
0.00727237
0.00654065
0.00587259
0.00525622
0.00470101
0.00420414
0.251644
0.223467
0.170848
0.120849
0.0837642
0.0595644
0.044364
0.0345505
0.0278313
0.022947
0.0192333
0.01633
0.0140206
0.0121598
0.0106434
0.00939342
0.00835054
0.00746916
0.00671404
0.00605669
0.00547303
0.00495084
0.00449565
0.00410535
0.259668
0.233252
0.174271
0.120943
0.0826084
0.0582662
0.0432398
0.03359
0.0269667
0.0221299
0.0184403
0.0155545
0.0132647
0.0114296
0.00994604
0.00873657
0.00774182
0.00691621
0.00622454
0.00563825
0.00513319
0.00469579
0.00432702
0.00402412
0.270555
0.244853
0.177524
0.121046
0.0815562
0.0571239
0.0422667
0.032756
0.0262058
0.0214003
0.0177249
0.0148513
0.0125788
0.0107685
0.0093176
0.00814841
0.00720121
0.00643016
0.00579966
0.00528059
0.00484794
0.0044859
0.00419068
0.00395826
0.285953
0.257731
0.180294
0.120919
0.0804884
0.0560762
0.041407
0.032024
0.0255327
0.0207482
0.0170809
0.0142166
0.0119603
0.0101743
0.00875584
0.00762636
0.00672563
0.0060073
0.00543509
0.00497879
0.00461187
0.0043158
0.00408219
0.00390564
0.30713
0.267115
0.181927
0.120142
0.079274
0.0550655
0.0406281
0.0313739
0.0249352
0.0201661
0.0165038
0.0136475
0.0114069
0.00964507
0.00825846
0.00716766
0.00631175
0.0056437
0.00512623
0.00472758
0.0044193
0.00418003
0.00399731
0.00386432
0.00684075
0.0347479
0.0763213
0.123049
0.155519
0.171336
0.0222043
0.0683653
0.111223
0.157397
0.208081
0.288595
0.0318318
0.088681
0.133657
0.18111
0.234719
0.301631
0.0395164
0.102386
0.14907
0.19708
0.248008
0.299129
0.0459821
0.112641
0.160451
0.208089
0.254968
0.292979
0.0513659
0.120627
0.169102
0.215765
0.258409
0.286629
0.0557742
0.126898
0.175725
0.22115
0.259864
0.281063
0.059291
0.13175
0.180747
0.224956
0.260273
0.276531
0.0619814
0.135355
0.184449
0.227617
0.260267
0.273155
0.0638952
0.13782
0.187017
0.229429
0.260246
0.271012
0.0650772
0.139208
0.188574
0.23059
0.260449
0.270144
0.0655855
0.13955
0.189189
0.231214
0.26099
0.270578
0.0655491
0.138848
0.188886
0.231336
0.261892
0.272323
0.0648828
0.137117
0.187642
0.230936
0.263122
0.275429
0.0635433
0.134348
0.185396
0.22991
0.264544
0.279862
0.0614844
0.130514
0.182041
0.228081
0.265923
0.285574
0.0586553
0.125573
0.177433
0.225168
0.266935
0.292435
0.0549942
0.119464
0.171389
0.220787
0.267134
0.300146
0.0504296
0.112101
0.163675
0.214415
0.265723
0.308312
0.0448859
0.103335
0.153955
0.205332
0.261462
0.316238
0.038298
0.0928581
0.141665
0.1925
0.2524
0.322556
0.0306387
0.0798885
0.125662
0.174294
0.235288
0.323464
0.0213455
0.0618428
0.102932
0.147709
0.204345
0.306384
0.00598749
0.0285658
0.0633362
0.106483
0.155116
0.184231
0.331435
0.271213
0.181406
0.118412
0.0778226
0.0540537
0.0399076
0.0307915
0.0244045
0.0196491
0.0159907
0.0131421
0.010917
0.00917886
0.00782305
0.0067693
0.00595596
0.00533517
0.00486825
0.00452145
0.00426426
0.00407296
0.00393194
0.00383257
0.343255
0.264928
0.177629
0.115696
0.0761381
0.0530357
0.0392372
0.0302704
0.0239367
0.0191949
0.0155406
0.0126996
0.0104896
0.0087739
0.00744708
0.00642801
0.00565433
0.00507715
0.00465601
0.00435476
0.00414082
0.0039889
0.00388203
0.00380833
0.329706
0.253717
0.171886
0.112356
0.0743244
0.0520397
0.0386232
0.0298116
0.0235319
0.0188038
0.0151537
0.0123201
0.010124
0.00842882
0.00712829
0.00614066
0.00540292
0.00486504
0.00448444
0.00422239
0.00404432
0.00392377
0.00384335
0.0037895
0.312928
0.241928
0.165526
0.108849
0.0725321
0.0511129
0.038081
0.0294214
0.0231932
0.018478
0.0148317
0.0120045
0.00982048
0.00814286
0.00686502
0.00590471
0.00519836
0.00469468
0.00434881
0.0041195
0.00397042
0.00387441
0.00381403
0.00377539
0.297226
0.230922
0.15936
0.105523
0.0708909
0.0503012
0.0376283
0.0291087
0.0229259
0.0182209
0.014577
0.0117544
0.00957949
0.00791569
0.00665609
0.00571816
0.00503783
0.00456249
0.00424507
0.00404196
0.00391558
0.00383827
0.00379246
0.00376533
0.283904
0.221362
0.15386
0.102601
0.0694924
0.0496409
0.0372818
0.0288824
0.0227356
0.0180367
0.0143926
0.0115715
0.00940176
0.00774711
0.00650049
0.00557922
0.00491877
0.00446526
0.00416952
0.00398604
0.00387639
0.00381277
0.00377759
0.00375871
0.273142
0.213494
0.149278
0.100215
0.0683956
0.0491587
0.0370551
0.0287505
0.0226283
0.0179297
0.0142814
0.0114574
0.00928787
0.00763679
0.00639714
0.00548611
0.00483874
0.00440001
0.00411902
0.0039488
0.00385039
0.00379601
0.00376818
0.00375462
0.264872
0.20739
0.145743
0.0984394
0.0676373
0.0488736
0.0369599
0.0287206
0.0226096
0.0179042
0.014246
0.0114136
0.00923826
0.00758438
0.00634504
0.00543729
0.00479571
0.00436439
0.00409117
0.00392802
0.0038356
0.00378677
0.00376313
0.00375249
0.258938
0.203058
0.143319
0.0973152
0.0672409
0.0487993
0.0370002
0.0287898
0.0226747
0.0179554
0.0142827
0.0114375
0.00925143
0.00758915
0.00634356
0.00543172
0.00478826
0.00435686
0.00408457
0.0039226
0.00383139
0.00378398
0.00376142
0.00375184
0.255203
0.200482
0.142038
0.0968689
0.0672226
0.0489344
0.0371731
0.0289593
0.0228249
0.0180825
0.0143879
0.0115231
0.0093199
0.00764306
0.00638569
0.00546489
0.00481418
0.00437647
0.00409861
0.00393214
0.00383748
0.0037872
0.00376278
0.00375208
0.253575
0.199656
0.141926
0.0971096
0.0675771
0.0492877
0.0374908
0.0292381
0.0230675
0.0182941
0.0145726
0.0116839
0.00945915
0.00776228
0.00648565
0.00554596
0.00487775
0.0044246
0.00413377
0.00395682
0.00385397
0.00379677
0.0037673
0.0037532
0.253994
0.200592
0.143014
0.0980742
0.0683484
0.0498906
0.037976
0.0296451
0.0234194
0.0186034
0.0148461
0.0119248
0.00966859
0.00794155
0.00663658
0.00567048
0.00497749
0.00450154
0.00419074
0.0039972
0.00388108
0.00381344
0.00377555
0.00375548
0.256469
0.20333
0.145354
0.0998104
0.0695672
0.0507587
0.0386337
0.0301789
0.0238758
0.0190045
0.0152015
0.0122385
0.00994345
0.00817973
0.00683985
0.00584028
0.00511517
0.00460905
0.00427122
0.00405481
0.00392005
0.00383752
0.00378811
0.0037595
0.261034
0.207932
0.149006
0.10235
0.071243
0.0518916
0.039461
0.0308356
0.024432
0.0194927
0.0156354
0.0126243
0.0102844
0.00847792
0.00709686
0.00605722
0.00529306
0.00474962
0.00437775
0.00413198
0.0039729
0.00387068
0.00380593
0.00376565
0.267765
0.214487
0.154045
0.105747
0.0734056
0.0533028
0.0404616
0.031615
0.0250866
0.0200667
0.0161474
0.0130821
0.0106918
0.00883713
0.00740919
0.00632344
0.0055138
0.00492631
0.0045135
0.00423167
0.00404212
0.00391487
0.00383036
0.00377466
0.276756
0.223105
0.160559
0.110062
0.0760887
0.0550068
0.0416404
0.0325171
0.0258378
0.0207243
0.0167355
0.0136108
0.0111655
0.009258
0.00777828
0.00664114
0.0057803
0.00514254
0.00468216
0.00435743
0.00413078
0.00397251
0.0038631
0.00378742
0.288106
0.233901
0.168636
0.115355
0.0793255
0.0570177
0.0430007
0.0335404
0.0266821
0.0214619
0.0173968
0.0142083
0.0117044
0.00974055
0.00820516
0.00701228
0.0060954
0.0054019
0.00488772
0.00451329
0.00424251
0.00404647
0.00390615
0.00380495
0.301909
0.24698
0.178344
0.121675
0.0831439
0.059346
0.0445433
0.0346813
0.0276142
0.0222738
0.0181263
0.0148709
0.0123063
0.0102837
0.00869003
0.00743826
0.00646156
0.00570777
0.00513428
0.00470357
0.00438136
0.0041401
0.00396182
0.0038284
0.318237
0.262403
0.189697
0.129039
0.087555
0.0619941
0.0462645
0.0359335
0.0286263
0.0231526
0.0189176
0.0155935
0.0129673
0.0108852
0.00923195
0.00791944
0.00688041
0.00606291
0.00542551
0.00493254
0.00455165
0.00425718
0.00403268
0.00385899
0.337026
0.280103
0.202586
0.137392
0.0925369
0.06495
0.0481537
0.0372876
0.0297086
0.0240884
0.019762
0.0163689
0.0136818
0.0115411
0.00982854
0.00845495
0.00735247
0.00646923
0.00576458
0.0052044
0.00475807
0.00440179
0.00412081
0.00389751
0.357674
0.299791
0.216671
0.146549
0.0980073
0.0681764
0.0501896
0.0387277
0.0308484
0.0250702
0.0206499
0.0171888
0.0144432
0.0122461
0.0104761
0.00904272
0.00787724
0.00692766
0.00615376
0.00552244
0.00500436
0.00457747
0.00422936
0.00394514
0.378324
0.320177
0.231153
0.156112
0.103788
0.0715978
0.0523356
0.0402314
0.0320298
0.0260855
0.0215702
0.0180437
0.0152432
0.0129937
0.0111699
0.00967952
0.00845307
0.00743807
0.00659431
0.00588911
0.00529385
0.00478789
0.00436158
0.00400321
0.39288
0.339215
0.244622
0.165367
0.109565
0.0750863
0.0545362
0.0417696
0.0332343
0.0271201
0.0225113
0.0189233
0.0160732
0.0137765
0.0119039
0.010361
0.00907703
0.00799897
0.00708614
0.0063057
0.00562907
0.00503647
0.00452087
0.00407328
0.366199
0.350459
0.254775
0.173273
0.11489
0.0784633
0.0567185
0.0433079
0.0344418
0.0281599
0.0234612
0.0198172
0.0169238
0.0145865
0.0126714
0.0110815
0.00974487
0.00860747
0.00762779
0.00677225
0.00601161
0.00532602
0.00471045
0.00415685
0.00923501
0.0134473
0.0150136
0.0171235
0.0237935
0.0811397
0.0258813
0.0342938
0.0349362
0.0380332
0.0541967
0.123004
0.0338256
0.0434992
0.0471296
0.0535907
0.078855
0.158098
0.0390347
0.0512459
0.0580226
0.0679588
0.0999309
0.181655
0.0428042
0.0587056
0.0685057
0.0815169
0.118048
0.197129
0.0457732
0.0659438
0.0785137
0.0942511
0.133525
0.206371
0.0482481
0.072973
0.0879749
0.106067
0.146143
0.211387
0.0503503
0.0797069
0.096849
0.116935
0.156204
0.213709
0.0521312
0.086029
0.105082
0.126734
0.164239
0.214336
0.0536188
0.0918454
0.112621
0.135451
0.170717
0.213962
0.0548354
0.097062
0.119433
0.143161
0.176015
0.213073
0.0558037
0.10158
0.125494
0.149959
0.180463
0.212036
0.0565539
0.105289
0.130782
0.155938
0.184391
0.21115
0.0568035
0.108222
0.135274
0.16118
0.188037
0.210841
0.0565829
0.110367
0.138938
0.16574
0.191547
0.21135
0.0557455
0.111647
0.141719
0.169626
0.194998
0.212689
0.0542752
0.111878
0.143525
0.172758
0.198401
0.215321
0.0521223
0.110942
0.144115
0.174927
0.201553
0.219351
0.049125
0.108461
0.143384
0.175703
0.203917
0.224175
0.0451081
0.103945
0.140804
0.174468
0.204542
0.228559
0.0398116
0.0965961
0.13567
0.170132
0.201986
0.230067
0.0328498
0.0849763
0.126729
0.16088
0.193045
0.225282
0.0232109
0.0661407
0.111524
0.143581
0.171827
0.204547
0.00952598
0.0424137
0.0891618
0.116208
0.129278
0.124577
0.32319
0.345496
0.25853
0.178711
0.119301
0.0815426
0.058807
0.0448119
0.0356335
0.0291916
0.0244092
0.0207159
0.0177862
0.0154156
0.0134648
0.0118345
0.0104512
0.00925935
0.00821642
0.0072875
0.00644189
0.00565852
0.004933
0.00425531
0.292704
0.332
0.256784
0.181305
0.122544
0.0841959
0.0607445
0.0462554
0.036795
0.0302052
0.0253465
0.0216108
0.0186523
0.0162557
0.0142768
0.0126132
0.0111896
0.00994932
0.00884799
0.00784893
0.00691915
0.00603497
0.00519059
0.00436975
0.273416
0.312566
0.252465
0.181294
0.124639
0.0863902
0.0625064
0.0476252
0.0379186
0.0311945
0.0262673
0.0224959
0.0195154
0.0171001
0.0151003
0.0134106
0.0119539
0.0106716
0.00951767
0.00845308
0.00744165
0.00645547
0.00548457
0.00450087
0.261364
0.294123
0.246048
0.179942
0.125859
0.0881785
0.0641006
0.0489224
0.0390035
0.0321577
0.0271684
0.0233671
0.0203708
0.0179435
0.0159297
0.0142211
0.0127382
0.0114208
0.0102207
0.00909613
0.00800706
0.00691952
0.00581584
0.00464894
0.253273
0.277601
0.237514
0.177673
0.126436
0.0896404
0.0655538
0.0501577
0.0400547
0.0330965
0.0280497
0.0242228
0.0212159
0.0187827
0.0167619
0.0150413
0.0135393
0.0121936
0.0109538
0.00977541
0.00861367
0.00742695
0.00618547
0.00481397
0.247089
0.263018
0.22878
0.17505
0.126542
0.0908549
0.0669005
0.0513475
0.0410803
0.0340148
0.0289125
0.025063
0.0220502
0.0196173
0.0175964
0.0158714
0.014358
0.0129914
0.0117189
0.0104928
0.00926361
0.0079806
0.00659685
0.00499641
0.241772
0.250184
0.220252
0.172038
0.126393
0.0919044
0.0681757
0.0525094
0.04209
0.0349177
0.0297593
0.0258887
0.0228743
0.0204486
0.0184363
0.0167169
0.0152024
0.0138251
0.012529
0.0112627
0.00997154
0.00859501
0.00706338
0.00520066
0.236865
0.23891
0.212179
0.168767
0.12608
0.0928499
0.0694124
0.0536614
0.0430931
0.0358099
0.0305918
0.0267
0.0236884
0.0212779
0.0192861
0.0175869
0.0160882
0.0147184
0.013417
0.0121273
0.010788
0.00932645
0.00764217
0.00546164
0.232201
0.229208
0.204613
0.165352
0.125643
0.0937398
0.0706422
0.0548212
0.0440994
0.036696
0.0314106
0.0274951
0.0244891
0.0221029
0.0201463
0.0184881
0.0170323
0.0157038
0.0144383
0.0131742
0.0118445
0.0103657
0.00860329
0.00613037
0.227803
0.220985
0.197657
0.161891
0.12513
0.0946006
0.071885
0.0560064
0.0451216
0.0375815
0.0322153
0.0282686
0.0252681
0.022913
0.0210061
0.0194125
0.0180348
0.0167986
0.0156436
0.0145189
0.0133867
0.0122477
0.0112231
0.010655
0.223789
0.214171
0.191405
0.158658
0.124615
0.0954593
0.0731641
0.057238
0.0461746
0.038474
0.0330062
0.0290144
0.0260129
0.0236902
0.0218427
0.0203333
0.0190668
0.0179761
0.0170153
0.0161569
0.0153949
0.0147629
0.0143789
0.0144179
0.220313
0.208655
0.186032
0.155754
0.124159
0.0963488
0.074505
0.0585401
0.0472782
0.0393867
0.0337888
0.0297302
0.0267142
0.0244186
0.0226333
0.0212194
0.0200851
0.0191712
0.0184441
0.0178905
0.0175134
0.0173351
0.0174045
0.0177218
0.217578
0.204436
0.181659
0.153287
0.123839
0.0973041
0.0759353
0.059941
0.0484597
0.0403412
0.0345768
0.0304223
0.0273716
0.0250917
0.0233654
0.0220514
0.0210594
0.0203344
0.0198471
0.0195844
0.0195402
0.019702
0.020073
0.0205659
0.215865
0.201639
0.178406
0.151383
0.123703
0.0983716
0.0774884
0.0614751
0.0497547
0.0413695
0.0353953
0.0311077
0.0279945
0.0257118
0.024034
0.0228151
0.0219632
0.0214225
0.0211608
0.0211582
0.021379
0.021818
0.0224141
0.0230411
0.215774
0.200707
0.176478
0.150188
0.123828
0.0995993
0.0792014
0.0631822
0.0512074
0.0425146
0.0362813
0.0318152
0.0286031
0.0262904
0.024641
0.0235015
0.0227746
0.0223996
0.0223385
0.0225419
0.023006
0.0236687
0.0244548
0.025209
0.216904
0.201364
0.176205
0.149972
0.124458
0.101095
0.0811353
0.065114
0.0528723
0.043832
0.0372856
0.0325872
0.0292299
0.0268496
0.0251978
0.0241106
0.0234821
0.0232443
0.0233367
0.0237229
0.0243871
0.0252423
0.0262019
0.0270869
0.220231
0.204413
0.177734
0.151019
0.125818
0.103012
0.0833833
0.0673408
0.0548182
0.0453919
0.0384747
0.0334817
0.0299221
0.027425
0.0257288
0.024656
0.0240891
0.0239514
0.0241494
0.0246853
0.0255097
0.0265299
0.0276499
0.0286719
0.226395
0.210609
0.181967
0.153854
0.128266
0.105586
0.0860947
0.0699673
0.0571361
0.0472835
0.0399349
0.0345769
0.030746
0.0280706
0.0262759
0.0251686
0.0246171
0.0245341
0.024793
0.0254318
0.0263765
0.0275304
0.0287932
0.0299557
0.234776
0.219868
0.189303
0.159083
0.132317
0.10919
0.0895163
0.0731614
0.0599582
0.0496272
0.0417805
0.035978
0.0317942
0.0288646
0.0269038
0.0257018
0.0251106
0.0250302
0.0253035
0.0259889
0.0270079
0.0282559
0.0296345
0.030934
0.244057
0.231064
0.199663
0.167091
0.138531
0.114335
0.0940366
0.0772016
0.0634939
0.0525988
0.0441707
0.0378307
0.0331966
0.0299196
0.0277086
0.0263381
0.0256416
0.0255045
0.0257439
0.0264089
0.0274482
0.0287415
0.0301958
0.0316169
0.251747
0.241496
0.211289
0.177276
0.147042
0.121459
0.100135
0.0825004
0.0680752
0.0564722
0.0473436
0.0403474
0.0351418
0.0314003
0.0288324
0.0271995
0.026317
0.026052
0.0262098
0.0267783
0.0277749
0.0290547
0.0305307
0.0320415
0.253896
0.246608
0.220339
0.187317
0.156811
0.13037
0.108056
0.0894621
0.0741272
0.0616422
0.0516557
0.0438493
0.0379165
0.0335579
0.0304925
0.0284733
0.0272977
0.0268101
0.0268394
0.0272313
0.0281061
0.0293082
0.0307399
0.0322878
0.245596
0.241918
0.221605
0.193348
0.165325
0.139685
0.117244
0.0980595
0.0819111
0.0685044
0.057551
0.0487833
0.0419447
0.0367771
0.0330265
0.030452
0.0288364
0.0280011
0.0278039
0.0279932
0.0286122
0.0296619
0.0309774
0.0325022
0.212373
0.222501
0.213239
0.192132
0.169452
0.147074
0.126172
0.107463
0.0911357
0.0771456
0.0653628
0.0556305
0.0477805
0.0416273
0.0369753
0.0336237
0.0313655
0.0300092
0.0293965
0.0293579
0.0296429
0.0303923
0.0315114
0.0329292
)
;

boundaryField
{
    rotor
    {
        type            kqRWallFunction;
        value           nonuniform List<scalar> 
144
(
0.00382645
0.00835594
0.0160079
0.0243209
0.0320502
0.0511084
0.00382645
0.0158185
0.0197369
0.021812
0.0233829
0.0244191
0.0249459
0.0250067
0.0254557
0.026116
0.0266979
0.0271146
0.0272941
0.0272152
0.0268848
0.0263365
0.0256412
0.0249755
0.0247629
0.0238314
0.0222391
0.0200819
0.0160265
0.00379877
0.00379877
0.00832134
0.0182576
0.0334779
0.0587351
0.110074
0.00494309
0.0162913
0.0496003
0.0893168
0.113446
0.11664
0.00494309
0.0179452
0.0225789
0.0249605
0.0271802
0.0298239
0.0319205
0.0334871
0.0345661
0.0351881
0.0353634
0.0351763
0.0346578
0.0339012
0.0328838
0.0315892
0.0299929
0.028003
0.0251967
0.02374
0.0222883
0.0203751
0.0166387
0.00460099
0.00460099
0.00788188
0.0121745
0.0190977
0.0374411
0.118319
0.00684075
0.0347479
0.0763213
0.123049
0.155519
0.171336
0.00684075
0.0222043
0.0318318
0.0395164
0.0459821
0.0513659
0.0557742
0.059291
0.0619814
0.0638952
0.0650772
0.0655855
0.0655491
0.0648828
0.0635433
0.0614844
0.0586553
0.0549942
0.0504296
0.0448859
0.038298
0.0306387
0.0213455
0.00598749
0.00598749
0.0285658
0.0633362
0.106483
0.155116
0.184231
0.00923501
0.0134473
0.0150136
0.0171235
0.0237935
0.0811397
0.00923501
0.0258813
0.0338256
0.0390347
0.0428042
0.0457732
0.0482481
0.0503503
0.0521312
0.0536188
0.0548354
0.0558037
0.0565539
0.0568035
0.0565829
0.0557455
0.0542752
0.0521223
0.049125
0.0451081
0.0398116
0.0328498
0.0232109
0.00952598
0.00952598
0.0424137
0.0891618
0.116208