/*--------------------------------*- C++ -*----------------------------------*\
  =========                 |
  \\      /  F ield         | OpenFOAM: The Open Source CFD Toolbox
   \\    /   O peration     | Website:  https://openfoam.org
    \\  /    A nd           | Version:  11
     \\/     M anipulation  |
\*---------------------------------------------------------------------------*/
FoamFile
{
    format      ascii;
    class       volScalarField;
    location    "0.4";
    object      nut;
}
// * * * * * * * * * * * * * * * * * * * * * * * * * * * * * * * * * * * * * //

dimensions      [0 2 -1 0 0 0 0];

internalField   nonuniform List<scalar> 
2880
(
7.37978e-07
3.1169e-06
9.81766e-06
2.22216e-05
4.08515e-05
8.6763e-05
2.7389e-05
5.86123e-05
0.000103351
0.000151609
0.000203621
0.000263505
0.000157664
0.000136986
0.000219074
0.000300458
0.000377371
0.000441318
0.000174244
0.000202968
0.000319676
0.000428325
0.000523735
0.000595877
0.000186808
0.00025342
0.000401991
0.000533131
0.000643067
0.000724726
0.00019527
0.000289317
0.000468429
0.00061828
0.000740531
0.000832382
0.000199674
0.000312667
0.000521547
0.000687546
0.00082076
0.000922366
4.72345e-05
0.0003282
0.000563536
0.000742897
0.000885984
0.000997416
4.77075e-05
0.00034471
0.000596257
0.000786063
0.000937765
0.00105855
4.82986e-05
0.000359267
0.000620711
0.000818011
0.000976991
0.0011062
4.883e-05
0.000370427
0.000637134
0.000839284
0.00100396
0.00114036
4.92094e-05
0.000377256
0.000645509
0.000849969
0.00101856
0.00116052
4.93733e-05
0.000379587
0.000645664
0.000849908
0.0010204
0.00116592
4.9304e-05
0.000377274
0.000637276
0.000838793
0.00100897
0.00115578
4.90075e-05
0.000370181
0.00062009
0.000816212
0.000983803
0.00112958
4.85106e-05
0.00035809
0.000593645
0.000781844
0.000944579
0.00108734
4.78736e-05
0.000340709
0.00055746
0.000735244
0.000891128
0.00102973
4.72563e-05
0.00031778
0.000510964
0.000675964
0.000823357
0.000957916
0.000197799
0.000288962
0.000453455
0.000603416
0.000741004
0.000873098
0.000190368
0.000247266
0.000384053
0.000516721
0.000643235
0.000775603
0.000177658
0.000193432
0.000301969
0.000414541
0.000528179
0.000663354
0.000160433
0.000128297
0.000206628
0.000295096
0.000392896
0.0005311
2.77559e-05
5.53482e-05
0.000100073
0.000158373
0.0002356
0.000371371
7.33004e-07
3.10477e-06
1.1195e-05
3.05794e-05
7.48166e-05
0.000186551
0.000458289
0.00069438
0.000799605
0.000874259
0.000888951
0.000895336
0.000891921
0.00088223
0.000869294
0.000855817
0.000844488
0.000838627
0.00084277
0.000856959
0.000883969
0.000931789
0.00100514
0.00110525
0.00123179
0.00138276
0.00155038
0.00171521
0.00188976
0.00206467
0.000454212
0.000630179
0.000735318
0.000789221
0.00084173
0.000854645
0.000855756
0.000850038
0.000839238
0.000825349
0.000810651
0.000796408
0.000781583
0.000771946
0.000770127
0.00077615
0.000792406
0.00082148
0.000865414
0.000925938
0.00100223
0.00109752
0.00120602
0.00133166
0.000538817
0.000637114
0.000716
0.000771313
0.000804722
0.000839213
0.00085276
0.000857577
0.000857273
0.00085301
0.000846175
0.000838355
0.000831706
0.000825034
0.000818311
0.000811873
0.000807154
0.000805051
0.000806404
0.000812591
0.000824283
0.000845981
0.000867579
0.000930681
0.00066138
0.000716125
0.0007666
0.000812426
0.000850372
0.00088891
0.00091373
0.000941505
0.000964785
0.000984986
0.00100431
0.00102324
0.00104132
0.00105792
0.00107229
0.00108359
0.00109162
0.00109699
0.00109891
0.00109634
0.00108808
0.00107992
0.00106441
0.0010678
0.00078894
0.0008326
0.000871171
0.000911879
0.00095429
0.00100064
0.00104642
0.00109424
0.0011425
0.00119098
0.00123953
0.00128777
0.00133553
0.00138131
0.00142232
0.00145622
0.00148353
0.00150942
0.00153383
0.00154766
0.00154471
0.00153472
0.00151582
0.00150549
0.000906275
0.0009562
0.000997221
0.00104083
0.00109003
0.0011457
0.00120573
0.00127013
0.00133692
0.00140505
0.00147347
0.00154076
0.00160529
0.00166527
0.00171927
0.00176376
0.00179723
0.00182561
0.00185403
0.00187435
0.00188178
0.00188474
0.00188616
0.00189258
0.00100914
0.00107246
0.00112308
0.0011737
0.00122951
0.00129172
0.00135919
0.0014308
0.00150444
0.00157825
0.00165056
0.00171975
0.00178428
0.00184277
0.00189421
0.00193622
0.00196852
0.00199693
0.00202192
0.00203703
0.00204426
0.00204772
0.00204989
0.00205394
0.00109701
0.00117575
0.00123826
0.00129698
0.001358
0.00142354
0.0014936
0.00156665
0.00164079
0.00171415
0.00178499
0.00185175
0.0019131
0.00196809
0.00201546
0.0020556
0.00208999
0.00212003
0.00214395
0.00216407
0.0021793
0.00218838
0.00219123
0.00218877
0.00117005
0.00126424
0.00133915
0.0014058
0.00147071
0.00153673
0.00160466
0.00167343
0.00174158
0.00180746
0.00186955
0.00192653
0.00197741
0.00202103
0.00205981
0.00209309
0.00212075
0.00214222
0.00215638
0.00216082
0.00215687
0.00214665
0.00213512
0.00212615
0.00122913
0.00133629
0.00142362
0.00149888
0.00156742
0.00163232
0.00169512
0.00175628
0.00181441
0.00186821
0.00191637
0.00195765
0.00199082
0.00201493
0.00202795
0.00202947
0.00202358
0.00201518
0.00200991
0.00201013
0.00201267
0.00202502
0.00203899
0.00205182
0.00127341
0.00139266
0.00148961
0.00157188
0.00164436
0.00170959
0.0017683
0.0018201
0.00186491
0.00190156
0.00192861
0.00194491
0.00195007
0.00194473
0.00193104
0.00191442
0.00189739
0.0018817
0.0018704
0.0018698
0.0018792
0.00189499
0.00192216
0.00194197
0.00130173
0.00143144
0.00153777
0.00162612
0.00170047
0.00176339
0.00181606
0.0018588
0.00189106
0.00191218
0.00192169
0.00191976
0.00190758
0.00188717
0.00186094
0.00183096
0.00180028
0.00177147
0.00174554
0.00172202
0.00171252
0.00172269
0.00173824
0.00176193
0.00131276
0.00145018
0.0015635
0.00165684
0.00173334
0.001795
0.00184284
0.00187713
0.00189778
0.00190475
0.00189845
0.00188005
0.00185163
0.001816
0.00177612
0.0017349
0.0016935
0.00165453
0.00161494
0.00157646
0.00155145
0.00153148
0.00152498
0.00153564
0.00130529
0.00144717
0.00156434
0.00165992
0.00173647
0.00179575
0.00183874
0.001866
0.00187804
0.00187569
0.00186036
0.00183421
0.00179987
0.00176045
0.00171732
0.00167521
0.00162868
0.00157806
0.00152511
0.00149544
0.00145256
0.00140575
0.00137253
0.00138578
0.00127887
0.00142213
0.00154001
0.00163491
0.00170936
0.00176529
0.00180401
0.00182662
0.00183429
0.00182854
0.00181138
0.00178511
0.00175157
0.00171531
0.00166943
0.0016147
0.00155871
0.00151915
0.0014847
0.00143458
0.00137966
0.00132871
0.00128687
0.00130687
0.00123431
0.00137714
0.00149358
0.00158578
0.00165676
0.00170905
0.00174451
0.00176474
0.00177126
0.00176559
0.00175015
0.0017261
0.00168558
0.00163718
0.00158942
0.00155167
0.0015156
0.0014669
0.00140764
0.00134886
0.00129608
0.00125497
0.0012307
0.0012842
0.001174
0.00131678
0.0014314
0.00152021
0.0015873
0.00163601
0.0016687
0.00168725
0.00169334
0.00168628
0.00166061
0.00162287
0.00159352
0.00156582
0.00153292
0.00148418
0.00142532
0.00136407
0.00130514
0.00125336
0.00121585
0.00120112
0.00122263
0.0013408
0.00110175
0.0012475
0.00136153
0.00144727
0.0015104
0.0015552
0.00158432
0.0015995
0.00159224
0.00156881
0.00156103
0.00154742
0.0015206
0.00147571
0.00142133
0.00136269
0.00130371
0.00124895
0.00120456
0.00117861
0.00118148
0.00122492
0.00133473
0.00152613
0.00102213
0.00117622
0.00129168
0.00137483
0.00143359
0.00147326
0.00149173
0.00148678
0.00148995
0.0014929
0.00148009
0.00144245
0.00139604
0.00134369
0.00128898
0.00123631
0.00119162
0.00116256
0.00115815
0.00118803
0.00126289
0.00139644
0.00161945
0.00183159
0.000939549
0.00110878
0.00122744
0.00130786
0.00136097
0.00138469
0.00139495
0.00141124
0.00141462
0.00139267
0.00135675
0.001313
0.00126536
0.00121811
0.00117683
0.00114896
0.00114315
0.00116737
0.00122765
0.00132923
0.00148134
0.00169969
0.00195866
0.00218937
0.000857407
0.00104886
0.00117152
0.00124805
0.0012846
0.00131191
0.00132949
0.00133169
0.00130915
0.00127654
0.00123779
0.00119765
0.00116175
0.00113693
0.00113132
0.00115199
0.00120238
0.00128257
0.00139344
0.00154351
0.00175414
0.00201945
0.00231295
0.0025808
0.00077789
0.000998031
0.00112429
0.00118814
0.00123017
0.00124916
0.00125475
0.00123639
0.00120859
0.00117661
0.00114655
0.00112491
0.00111884
0.00113477
0.00117506
0.00123755
0.00132002
0.00142595
0.00156909
0.0017741
0.00206085
0.00238394
0.00273462
0.0030289
0.0007021
0.000957247
0.0010833
0.00114671
0.00117329
0.00118781
0.0011758
0.00115392
0.00113002
0.00111115
0.00110371
0.0011133
0.00114257
0.00118972
0.00125212
0.0013313
0.00143564
0.00158159
0.00179285
0.00209253
0.0024507
0.00283558
0.00321438
0.00351002
0.000635371
0.000929807
0.00105142
0.00110174
0.00112628
0.00112594
0.00111028
0.00109455
0.00108578
0.00108934
0.00110828
0.00114248
0.00119008
0.00125208
0.00133415
0.00144617
0.00160267
0.00182189
0.00212056
0.00250067
0.00289889
0.00331626
0.00368043
0.00396171
9.54817e-07
6.10053e-06
3.05356e-05
8.18863e-05
0.000144909
4.61456e-05
3.10845e-05
4.48076e-05
0.000118655
0.000232077
0.000349612
0.000364026
0.000179628
0.000106559
0.000223927
0.000377036
0.000525799
0.000634534
0.000199564
0.000167396
0.000315178
0.00048919
0.000646788
0.000769364
4.96494e-05
0.000222544
0.000389009
0.000569373
0.000719445
0.000825542
5.17417e-05
0.00026807
0.000446001
0.000622908
0.000757986
0.000844912
5.35235e-05
0.000303067
0.000487798
0.000655464
0.000773936
0.000841674
5.48213e-05
0.000328065
0.000516387
0.000672246
0.00077424
0.000827276
5.56967e-05
0.000344148
0.000533753
0.000677367
0.00076516
0.000808393
5.61944e-05
0.000352372
0.000541702
0.000673909
0.000750651
0.000788413
5.63331e-05
0.000353518
0.000541769
0.000664072
0.000733032
0.000768836
5.61819e-05
0.000348027
0.000535202
0.000649339
0.000713533
0.000749907
5.57653e-05
0.000335677
0.000523001
0.000631121
0.000692868
0.000731487
5.5152e-05
0.000317067
0.000505506
0.000609658
0.000670398
0.000713131
5.43165e-05
0.000293728
0.000482857
0.000585117
0.00064617
0.000694226
5.32349e-05
0.000267097
0.00045523
0.00055726
0.000619442
0.000673755
5.18707e-05
0.000238662
0.000422894
0.000525411
0.000589207
0.000650749
5.01178e-05
0.000210355
0.000386339
0.000488408
0.00055412
0.000623565
4.75304e-05
0.000185778
0.000346213
0.000444683
0.000512329
0.000590847
0.000189766
0.000175193
0.000301866
0.000392204
0.000461871
0.000546834
0.000178148
0.000154534
0.000250033
0.000329399
0.000399153
0.000483545
0.000162846
0.00011551
0.000181347
0.00024997
0.000315037
0.000388029
2.88251e-05
5.40323e-05
8.91936e-05
0.000138731
0.000197409
0.000239803
8.88219e-07
2.94071e-06
7.47048e-06
1.74842e-05
4.7677e-05
0.000202962
0.000617524
0.000927759
0.00102909
0.00106685
0.00108322
0.00107395
0.0010656
0.00106471
0.00107553
0.00109939
0.00113586
0.00118531
0.00125165
0.00134169
0.00146383
0.00162832
0.00184705
0.00213307
0.00249639
0.00290769
0.00333101
0.00375169
0.00410759
0.00435358
0.000776972
0.000946474
0.00100458
0.00104271
0.00104132
0.0010395
0.00104467
0.00106065
0.00108828
0.00112774
0.00118106
0.00125302
0.0013497
0.00147745
0.00164304
0.00185439
0.00212202
0.00245737
0.00286443
0.00329268
0.00372778
0.0041289
0.00447248
0.0046762
0.000866896
0.000950604
0.000990837
0.00101132
0.00101378
0.0010239
0.00104455
0.0010761
0.00111901
0.00117575
0.00125095
0.00134997
0.00147836
0.00164165
0.00184596
0.0020992
0.00241027
0.00278458
0.00321622
0.00364487
0.00406846
0.00443997
0.00475697
0.00492323
0.00090313
0.00094196
0.000973584
0.000984526
0.00100046
0.00102607
0.00106181
0.00110785
0.00116647
0.0012421
0.00134034
0.00146717
0.00162816
0.00182822
0.00207188
0.00236346
0.00270626
0.00309904
0.00352996
0.00394194
0.00433417
0.00467659
0.00494897
0.00508771
0.000908101
0.000927067
0.000952355
0.00097244
0.00100283
0.00104328
0.00109256
0.00115215
0.0012266
0.00132233
0.00144629
0.00160446
0.00180094
0.00203763
0.00231481
0.00263215
0.00298835
0.00337816
0.00378765
0.00417151
0.00451996
0.00482114
0.00505065
0.00516947
0.000898145
0.000908893
0.000938007
0.00097268
0.00101846
0.0010719
0.00113279
0.00120551
0.00129741
0.00141665
0.00157009
0.00176185
0.00199273
0.00226061
0.00256162
0.00289124
0.00324426
0.003613
0.00398411
0.00432928
0.00462423
0.00487465
0.00506463
0.00516414
0.000879847
0.000893046
0.00093241
0.000983978
0.00104366
0.00110791
0.00117966
0.00126689
0.00137934
0.00152549
0.00171055
0.00193552
0.00219732
0.00248974
0.0028048
0.00313405
0.00346924
0.00380177
0.00412099
0.00441274
0.00465194
0.00483979
0.00498963
0.00506934
0.000858995
0.000881746
0.000936677
0.00100446
0.00107566
0.00114913
0.00123224
0.00133637
0.00147251
0.00164808
0.00186536
0.00212148
0.0024093
0.00271877
0.00303836
0.00335652
0.00366281
0.00394844
0.00420572
0.00442717
0.00460541
0.00473072
0.00482032
0.00488162
0.000838137
0.000876604
0.000950354
0.00103214
0.00111237
0.00119443
0.00129031
0.00141404
0.00157657
0.00178287
0.00203136
0.00231502
0.00262308
0.00294243
0.00325893
0.00355871
0.00382963
0.00406244
0.00425146
0.00439466
0.00449314
0.00454971
0.0045684
0.00457667
0.000818141
0.000879304
0.000970963
0.00106434
0.00115204
0.00124303
0.00135367
0.0014996
0.00169043
0.00192744
0.00220472
0.00251146
0.00283407
0.00315736
0.00346559
0.0037435
0.00397771
0.00415801
0.00427868
0.00433965
0.00434644
0.00430513
0.00421333
0.00404486
0.000801017
0.000887833
0.000996543
0.00109944
0.00119385
0.00129471
0.00142215
0.00159236
0.00181232
0.00207879
0.00238149
0.00270657
0.00303856
0.00336128
0.0036584
0.00391433
0.00411525
0.00425008
0.00431139
0.00429583
0.00420219
0.00401587
0.00365037
0.00300352
0.000788006
0.0008998
0.00102534
0.00113644
0.00123738
0.00134922
0.0014952
0.00169102
0.00193998
0.00223369
0.00255793
0.00289666
0.00323358
0.00355242
0.00383721
0.004073
0.00424668
0.00434765
0.0043679
0.00430179
0.00414578
0.00389931
0.00356387
0.00317387
0.000777608
0.000914671
0.0010565
0.00117476
0.00128232
0.00140612
0.0015718
0.00179375
0.00207082
0.002389
0.00273066
0.00307861
0.00341659
0.00372895
0.0040007
0.00421816
0.00436986
0.00444716
0.00444435
0.00435833
0.00418836
0.00393739
0.00361804
0.0032927
0.000768699
0.000932128
0.0010897
0.00121417
0.00132841
0.00146469
0.00165047
0.00189835
0.00220234
0.00254192
0.0028969
0.0032499
0.00358547
0.00388905
0.00414685
0.00434669
0.00447887
0.00453694
0.00451779
0.0044213
0.00424995
0.0040098
0.00371431
0.00340555
0.000760001
0.000951795
0.00112427
0.00125444
0.00137523
0.00152375
0.00172932
0.00200247
0.00233239
0.00269022
0.00305453
0.00340873
0.00373874
0.00403133
0.004274
0.00445593
0.00456907
0.00460894
0.00457471
0.00446865
0.00429559
0.00406332
0.00378494
0.00348573
0.000750571
0.000974526
0.00115747
0.00129551
0.00142174
0.00158175
0.00180749
0.00210542
0.00245959
0.00283234
0.00320212
0.00355398
0.00387559
0.00415514
0.0043813
0.00454443
0.00463789
0.00465887
0.00460852
0.00449117
0.00431355
0.00408474
0.0038173
0.00352702
0.000739897
0.000999704
0.00119573
0.00133744
0.0014667
0.00163861
0.00188505
0.00220707
0.00258277
0.0029672
0.00333885
0.0036852
0.00399591
0.00426054
0.00446877
0.00461193
0.00468459
0.00468556
0.00461792
0.00448811
0.0043047
0.00407787
0.00381975
0.00354163
0.000727466
0.00102425
0.00123542
0.00137835
0.00151049
0.00169483
0.00196221
0.00230725
0.00270132
0.0030943
0.00346448
0.00380248
0.0041001
0.00434812
0.00453699
0.00465877
0.00470915
0.00468856
0.00460217
0.00445871
0.00426879
0.0040439
0.00379653
0.0035372
0.000713294
0.00105242
0.00127654
0.0014191
0.00155381
0.00175111
0.00203937
0.00240588
0.00281539
0.00321356
0.00357914
0.00390634
0.00418901
0.0044189
0.00458698
0.00468586
0.00471229
0.00466851
0.00456215
0.00440464
0.00420893
0.00398805
0.00375523
0.00352136
0.00069766
0.00108304
0.00132021
0.00146059
0.0015978
0.00180849
0.0021172
0.00250323
0.00292507
0.0033251
0.00368329
0.0039976
0.00426375
0.0044742
0.00462011
0.00469455
0.00469542
0.00462716
0.00450038
0.00432971
0.00413066
0.00391758
0.00370391
0.00350018
0.000681805
0.0011168
0.00136137
0.00150191
0.00164377
0.00186823
0.00219653
0.00259975
0.00303069
0.00342929
0.00377761
0.00407732
0.0043257
0.00451557
0.00463809
0.00468667
0.00466068
0.0045673
0.0044208
0.00423937
0.00404085
0.00384017
0.00364962
0.00347784
0.000668292
0.00116294
0.00140162
0.00154746
0.00169389
0.00193181
0.00227826
0.00269593
0.00313264
0.00352657
0.00386287
0.00414664
0.00437633
0.00454476
0.00464285
0.00466449
0.00461089
0.0044927
0.00432847
0.00413999
0.00394669
0.00376269
0.00359758
0.00345684
0.000660183
0.00122968
0.00144696
0.00160117
0.0017504
0.00200068
0.00236317
0.00279214
0.00323125
0.00361737
0.00393989
0.00420678
0.00441718
0.0045636
0.00463659
0.00463064
0.00454943
0.00440783
0.00422906
0.00403807
0.00385458
0.00369034
0.00355101
0.00343845
0.000660804
0.00127944
0.00151466
0.00166568
0.00181507
0.00207573
0.00245148
0.00288834
0.00332661
0.00370202
0.00400944
0.00425893
0.00444983
0.00457403
0.00462164
0.00458807
0.00448012
0.00431753
0.00412825
0.0039394
0.0037694
0.00362632
0.00351142
0.00342312
1.32079e-06
1.29716e-05
4.68618e-05
0.000112606
0.000199789
5.70037e-05
3.84644e-05
9.69593e-05
0.000187421
0.000314114
0.000414515
0.00047004
5.33957e-05
0.00020839
0.000356849
0.000535639
0.000703385
0.00087209
5.94923e-05
0.00031082
0.00051533
0.000738064
0.000958924
0.00118205
6.41738e-05
0.000398137
0.000654942
0.000912431
0.00116581
0.0013997
6.78253e-05
0.000469263
0.000773958
0.00105771
0.0013286
0.0015541
7.06746e-05
0.000525542
0.000872749
0.00117616
0.00145469
0.00166595
7.28676e-05
0.000568666
0.000952526
0.00127127
0.00155056
0.00174794
7.45013e-05
0.000600235
0.00101471
0.00134562
0.0016219
0.00180855
7.56416e-05
0.00062156
0.00106067
0.00140103
0.00167381
0.00185292
7.63364e-05
0.00063357
0.00109156
0.00143916
0.00170966
0.00188414
7.66316e-05
0.000636737
0.00110831
0.00146125
0.00173128
0.00190401
7.66105e-05
0.000631045
0.00111156
0.00146803
0.00173943
0.00191391
7.62218e-05
0.000617565
0.00110162
0.00145998
0.00173465
0.00191358
7.54336e-05
0.000597066
0.00107838
0.00143688
0.0017142
0.00190174
7.42047e-05
0.000570108
0.00104129
0.00139672
0.00167676
0.00187643
7.24809e-05
0.000536857
0.00098922
0.00133695
0.00161961
0.00183362
7.01863e-05
0.000496598
0.000920369
0.00125482
0.00153847
0.00176698
6.72144e-05
0.000447956
0.000831874
0.00114619
0.00142664
0.00166752
6.34164e-05
0.000388615
0.000719553
0.00100562
0.00127515
0.00151926
5.85819e-05
0.000315127
0.000578643
0.000826697
0.00107341
0.00129738
5.24011e-05
0.000222354
0.000406991
0.000604112
0.000812063
0.000963371
3.69876e-05
0.000108133
0.000210483
0.000342674
0.000495392
0.000514195
1.15645e-06
1.06615e-05
3.88788e-05
9.73765e-05
0.000198454
5.92319e-05
0.000704841
0.00137655
0.0016122
0.00174203
0.00188776
0.00215646
0.00254247
0.0029839
0.00341846
0.00378073
0.00407222
0.00430423
0.00447579
0.00457795
0.00460041
0.00453989
0.0044069
0.00422656
0.0040311
0.00384843
0.00369417
0.003572
0.00347902
0.00341081
0.00116536
0.00157458
0.00172857
0.00182505
0.00196511
0.00224054
0.00263436
0.00307757
0.00350616
0.00385354
0.00412888
0.00434377
0.00449655
0.00457728
0.00457536
0.0044892
0.00433363
0.00413919
0.0039416
0.00376805
0.00363022
0.00352731
0.0034532
0.00340116
0.00142841
0.00171106
0.00182524
0.00190188
0.00204143
0.00232457
0.00272477
0.00316776
0.00358881
0.00392044
0.00418004
0.00437864
0.0045136
0.00457392
0.00454892
0.00443905
0.00426379
0.00405891
0.00386251
0.00369973
0.00357772
0.00349162
0.00343294
0.00339357
0.00159853
0.00180758
0.00190323
0.00197057
0.00211422
0.00240601
0.00281156
0.00325296
0.00366521
0.00398138
0.00422634
0.00440994
0.00452839
0.00456977
0.00452349
0.00439235
0.0042005
0.00398842
0.00379543
0.00364374
0.00353599
0.00346391
0.00341742
0.00338779
0.00171969
0.00187979
0.001967
0.00203157
0.00218214
0.00248286
0.00289301
0.00333235
0.00373314
0.00403629
0.00426846
0.00443874
0.00454238
0.00456669
0.00450141
0.00435178
0.00414641
0.00392967
0.00374116
0.00359974
0.00350399
0.00344308
0.00340585
0.00338355
0.0018092
0.0019354
0.0020196
0.00208537
0.00224421
0.00255348
0.00296752
0.00340455
0.00379347
0.00408574
0.00430719
0.0044661
0.00455689
0.00456637
0.00448475
0.00431967
0.00410362
0.00388396
0.00369988
0.00356698
0.00348058
0.00342798
0.00339759
0.00338064
0.0018762
0.00197894
0.00206305
0.00213223
0.00229951
0.0026165
0.00303381
0.00346877
0.00384708
0.00413052
0.00434334
0.00449292
0.00457303
0.0045702
0.00447524
0.00429783
0.00407359
0.00385195
0.00367136
0.00354473
0.00346492
0.00341759
0.00339194
0.00337877
0.00192707
0.0020133
0.0020987
0.00217217
0.00234721
0.00267076
0.00309088
0.00352448
0.0038943
0.00417115
0.00437755
0.00451995
0.00459166
0.0045792
0.00447407
0.0042875
0.0040572
0.00383384
0.00365515
0.00353221
0.00345549
0.00341171
0.003389
0.00337776
0.00196591
0.0020403
0.00212738
0.00220504
0.00238651
0.00271519
0.00313704
0.00356885
0.00393192
0.00420428
0.00440667
0.00454471
0.00461141
0.00459332
0.00448188
0.00428911
0.0040548
0.00382947
0.00365061
0.00352829
0.00345205
0.0034096
0.00338785
0.00337739
0.00199539
0.00206113
0.00214949
0.0022306
0.00241657
0.00274748
0.00316984
0.00360152
0.00396173
0.00423257
0.00443333
0.00456909
0.0046331
0.00461254
0.00449887
0.00430433
0.00406663
0.00383866
0.00365765
0.00353348
0.00345622
0.00341193
0.00338889
0.0033776
0.00201726
0.00207659
0.0021651
0.00224792
0.00243584
0.00276845
0.00319234
0.0036256
0.00398626
0.00425947
0.00446342
0.0046025
0.00466873
0.00464742
0.00453098
0.00433324
0.00409358
0.00386222
0.00367652
0.00354743
0.00346636
0.00341817
0.00339186
0.00337833
0.00203234
0.00208737
0.00217398
0.00225813
0.0024468
0.00277992
0.00320558
0.00364259
0.00400823
0.00428689
0.00449517
0.00463682
0.00470359
0.00468303
0.00456934
0.00437427
0.00413459
0.00389955
0.0037072
0.00357039
0.0034821
0.00342846
0.00339724
0.0033798
0.00204176
0.0020938
0.00217591
0.0022602
0.00244728
0.00277887
0.0032056
0.00364701
0.00402013
0.00430632
0.00452088
0.00466724
0.00473899
0.00472442
0.00461688
0.00442709
0.00418919
0.00395061
0.00375007
0.00360304
0.00350487
0.0034428
0.00340475
0.003382
0.00204431
0.00209552
0.00217175
0.00225466
0.00243778
0.00276571
0.00319244
0.00363867
0.00402194
0.00431823
0.00454199
0.00469692
0.00477689
0.00477094
0.00467247
0.00449068
0.00425661
0.00401513
0.00380543
0.00364599
0.00353527
0.00346213
0.00341503
0.00338518
0.00203971
0.00209214
0.00216179
0.00224174
0.00241853
0.00274071
0.00316664
0.0036184
0.00401467
0.00432379
0.00455948
0.00472547
0.0048162
0.00482145
0.00473475
0.00456363
0.00433567
0.00409257
0.00387347
0.00369997
0.0035742
0.00348733
0.00342871
0.0033896
0.00202646
0.00208299
0.0021461
0.00222172
0.00238997
0.00270425
0.00312824
0.00358581
0.00399755
0.00432207
0.00457222
0.00475173
0.00485566
0.00487457
0.00480211
0.00464422
0.00442484
0.00418204
0.00395416
0.00376563
0.00362263
0.00351931
0.00344647
0.00339558
0.00200205
0.00206687
0.00212448
0.00219485
0.0023527
0.00265691
0.00307753
0.00354072
0.00396979
0.004312
0.00457899
0.0047744
0.00489385
0.00492868
0.00487273
0.00473044
0.00452222
0.00428215
0.00404701
0.00384334
0.00368145
0.00355907
0.00346907
0.00340347
0.0019625
0.00204182
0.00209637
0.00216129
0.00230744
0.00259954
0.00301505
0.00348312
0.00393058
0.00429238
0.00457842
0.004792
0.00492917
0.00498201
0.0049446
0.00482007
0.00462554
0.00439099
0.00415088
0.00393296
0.00375128
0.00360751
0.00349729
0.00341366
0.0019016
0.00200477
0.00206059
0.00212096
0.00225492
0.00253321
0.00294177
0.00341343
0.0038789
0.00426191
0.00456905
0.00480292
0.00495987
0.00503264
0.00501557
0.00491069
0.00473221
0.00450611
0.00426396
0.00403363
0.00383219
0.00366527
0.00353174
0.00342635
0.00181097
0.00195108
0.00201506
0.00207337
0.00219582
0.00245926
0.00285912
0.00333308
0.0038124
0.00421918
0.00454945
0.00480555
0.00498416
0.0050786
0.00508344
0.00499986
0.00483953
0.0046247
0.00438375
0.00414371
0.00392359
0.00373255
0.00357282
0.00344175
0.00167555
0.00187375
0.00195643
0.00201752
0.00213068
0.00237911
0.00276857
0.00324272
0.00373327
0.00416403
0.00451859
0.00479843
0.0050003
0.00511791
0.00514605
0.00508517
0.00494476
0.00474376
0.00450726
0.00426069
0.0040239
0.00380874
0.00362067
0.00345999
0.00146762
0.001764
0.0018799
0.00195185
0.00205987
0.00229439
0.00267208
0.00314398
0.00364332
0.00409674
0.0044758
0.00478034
0.00500668
0.00514873
0.00520134
0.00516431
0.00504529
0.00486028
0.00463123
0.00438143
0.00413061
0.00389232
0.00367466
0.00348087
0.0011279
0.00159705
0.00177666
0.00187378
0.00198357
0.00220689
0.00257207
0.00303915
0.00354439
0.00401795
0.0044208
0.00475031
0.00500192
0.00516937
0.00524739
0.00523513
0.00513863
0.00497134
0.00475227
0.00450237
0.00424046
0.00398082
0.00373345
0.00350392
0.000574771
0.00130964
0.00163478
0.00178123
0.00190254
0.00211881
0.00247135
0.00293093
0.00343862
0.00392867
0.00435364
0.00470768
0.00498484
0.00517829
0.0052824
0.00529561
0.00522249
0.00507423
0.00486716
0.00461984
0.00434972
0.00407099
0.0037947
0.00352805
1.78599e-06
5.03313e-06
9.23372e-06
1.56739e-05
3.02665e-05
0.000137048
4.48895e-05
6.05227e-05
7.53894e-05
0.00010111
0.000151827
0.000264501
5.51318e-05
9.57866e-05
0.000138642
0.000180843
0.000254671
0.000366109
5.92182e-05
0.000121493
0.00019121
0.000252007
0.000334101
0.000435746
6.20041e-05
0.000150104
0.000242387
0.000317221
0.000399784
0.000486376
6.41119e-05
0.000182069
0.000293362
0.000376617
0.000455436
0.000523306
6.58171e-05
0.000216387
0.000342672
0.000429217
0.000499413
0.000550661
6.7232e-05
0.000251636
0.000388873
0.000474851
0.00053277
0.000574464
6.84083e-05
0.000286221
0.000430829
0.000512927
0.000559605
0.000595913
6.93765e-05
0.000318385
0.00046736
0.00054437
0.000583471
0.000615857
7.01595e-05
0.000346443
0.000497275
0.000571076
0.000606239
0.000635112
7.0778e-05
0.000368407
0.000520599
0.000594602
0.000628764
0.000654495
7.12551e-05
0.000382086
0.000537816
0.00061596
0.000651192
0.000675062
7.14157e-05
0.000388644
0.000549254
0.000634938
0.000674169
0.000697936
7.12793e-05
0.000388486
0.000554451
0.000650648
0.000696945
0.000723009
7.0751e-05
0.000381048
0.000552334
0.000661585
0.000718457
0.000748757
6.98111e-05
0.000364977
0.000541309
0.000665392
0.00073668
0.000776127
6.8414e-05
0.000339712
0.000518737
0.000658597
0.000747048
0.000803237
6.64232e-05
0.000303781
0.00048329
0.000636352
0.000742799
0.000824307
6.36551e-05
0.00025724
0.000431477
0.000593171
0.000713767
0.000821692
5.98067e-05
0.000200786
0.000360527
0.000522087
0.000648213
0.000771059
5.43332e-05
0.000134009
0.00026855
0.00041569
0.000532128
0.000640496
4.02631e-05
6.29487e-05
0.000155572
0.000268501
0.000358836
0.000377564
1.84274e-06
1.5858e-05
5.47662e-05
0.000106343
0.000165018
4.88237e-05
0.00051657
0.00112981
0.00150141
0.00168789
0.00182221
0.00203358
0.00237298
0.00282209
0.00332826
0.00383018
0.00427467
0.00465208
0.00495451
0.00517416
0.00530477
0.00534392
0.00529479
0.00516652
0.00497299
0.00473043
0.00445459
0.00415906
0.00385525
0.00355144
0.000518533
0.001067
0.00140183
0.00160319
0.0017471
0.00195384
0.00227921
0.00271482
0.00321523
0.00372378
0.00418444
0.00458337
0.00491023
0.00515587
0.00531308
0.00537846
0.00535374
0.00524617
0.00506733
0.00483119
0.00455167
0.00424127
0.00391136
0.00357146
0.00053037
0.00099384
0.00134304
0.00152651
0.00167854
0.00188034
0.00219083
0.00261026
0.00310078
0.00361058
0.00408353
0.00450154
0.0048515
0.00512253
0.0053062
0.00539789
0.00539788
0.00531154
0.00514829
0.00491987
0.0046382
0.00431438
0.0039593
0.00358481
0.000549357
0.000953886
0.00129533
0.00146439
0.00161687
0.00181243
0.00210736
0.00250844
0.00298538
0.00349136
0.00397247
0.00440669
0.00477801
0.00507352
0.00528329
0.00540128
0.00542621
0.00536158
0.00521469
0.00499504
0.00471242
0.00437611
0.00399597
0.00358782
0.000571382
0.0009269
0.00123971
0.00141126
0.00156078
0.0017489
0.00202773
0.0024088
0.00286892
0.00336649
0.00385161
0.00429896
0.00468963
0.00500851
0.00524392
0.00538822
0.00543841
0.00539606
0.00526635
0.00505648
0.00477394
0.00442564
0.00401963
0.00357705
0.000593609
0.000905491
0.00118834
0.00136879
0.00150827
0.00168837
0.0019507
0.00231041
0.00275092
0.0032361
0.0037212
0.00417847
0.00458635
0.00492748
0.00518819
0.00535903
0.00543514
0.00541605
0.00530469
0.00510587
0.00482448
0.00446449
0.00403076
0.00355007
0.000614587
0.000887508
0.00114464
0.00132748
0.00145917
0.00162986
0.0018751
0.00221231
0.00263076
0.00310008
0.00358131
0.0040453
0.00446829
0.00483066
0.00511671
0.00531497
0.00541853
0.00542471
0.00533403
0.00514862
0.00487029
0.00449911
0.00403466
0.00350698
0.000634059
0.000871836
0.00110966
0.00128657
0.00141245
0.00157185
0.00179944
0.00211358
0.00250783
0.00295827
0.00343194
0.00389944
0.00433543
0.00471831
0.00503034
0.005258
0.00539223
0.00542805
0.00536345
0.00519755
0.00492838
0.00455043
0.00405346
0.00345883
0.000652055
0.000858983
0.00108001
0.00124581
0.00136735
0.00151488
0.00172313
0.00201225
0.00238079
0.00281021
0.00327288
0.00374062
0.00418741
0.00459022
0.0049295
0.0051899
0.00536049
0.0054344
0.00540771
0.0052777
0.00504046
0.00468741
0.00419604
0.00350613
0.000668911
0.000848705
0.0010515
0.00120472
0.00132329
0.00145886
0.00164698
0.00190972
0.00225038
0.00265603
0.003104
0.00356834
0.00402333
0.00444515
0.00481306
0.00511042
0.00532525
0.00545027
0.00548239
0.00542299
0.00528121
0.0050832
0.00488256
0.00474942
0.000684986
0.000841197
0.00102425
0.00116575
0.00128018
0.00140381
0.00157167
0.00180712
0.0021178
0.00249649
0.00292559
0.00338222
0.00384191
0.00428091
0.00467795
0.00501584
0.00528248
0.00547141
0.00558169
0.00561821
0.00559347
0.00553105
0.00546613
0.0054348
0.000700599
0.00083635
0.000999514
0.00112903
0.00123824
0.00134996
0.00149782
0.00170556
0.0019845
0.00233292
0.00273853
0.00318235
0.00364213
0.00409504
0.00451992
0.00489926
0.00522067
0.00547745
0.00566843
0.00579748
0.00587327
0.00590977
0.00592652
0.00594227
0.000716675
0.000834149
0.000977877
0.0010956
0.00119782
0.00129758
0.00142604
0.00160621
0.00185219
0.00216722
0.00254453
0.00296973
0.0034238
0.00388569
0.00433485
0.00475336
0.00512735
0.00544768
0.00570963
0.00591257
0.00605992
0.00615537
0.00622734
0.00626464
0.000734616
0.000835288
0.000960342
0.00106614
0.00115888
0.00124705
0.00135696
0.00151025
0.00172272
0.00200183
0.00234613
0.00274644
0.0031878
0.0036519
0.0041193
0.00457145
0.00499201
0.00536759
0.00568804