/*--------------------------------*- C++ -*----------------------------------*\
  =========                 |
  \\      /  F ield         | OpenFOAM: The Open Source CFD Toolbox
   \\    /   O peration     | Website:  https://openfoam.org
    \\  /    A nd           | Version:  11
     \\/     M anipulation  |
\*---------------------------------------------------------------------------*/
FoamFile
{
    format      ascii;
    class       volVectorField;
    location    "0.4";
    object      U;
}
// * * * * * * * * * * * * * * * * * * * * * * * * * * * * * * * * * * * * * //

dimensions      [0 1 -1 0 0 0 0];

internalField   nonuniform List<vector> 
2880
(
(0.0279368 0.0288045 -4.76533e-21)
(0.0485983 0.0267709 -2.26555e-19)
(0.0878409 0.0144448 1.03608e-20)
(0.123387 0.00369355 -1.54097e-19)
(0.157938 -0.00461507 1.47438e-20)
(0.22445 -0.0241719 -1.07171e-19)
(0.0330436 0.018966 0)
(0.0542896 0.014554 2.0216e-19)
(0.0892902 0.00347899 2.00278e-20)
(0.118452 -0.00478191 -1.50617e-19)
(0.145631 -0.012317 -8.93646e-20)
(0.189449 -0.0169122 -2.56773e-20)
(0.0332566 0.0144128 2.42696e-19)
(0.0522768 0.00850855 -1.9124e-19)
(0.0817363 -0.000991273 0)
(0.104881 -0.00736953 2.53547e-19)
(0.126445 -0.0122673 8.31452e-20)
(0.156515 -0.0117297 2.5394e-20)
(0.03241 0.0102036 1.70758e-21)
(0.0483877 0.00424511 3.47827e-19)
(0.0718835 -0.00361403 -9.29128e-21)
(0.0893066 -0.00813779 -1.05857e-19)
(0.105263 -0.0109644 -1.10725e-19)
(0.125681 -0.00758632 1.27579e-19)
(0.0310226 0.0053019 -3.38608e-19)
(0.0434095 0.00123849 -2.58212e-19)
(0.061 -0.00487046 -8.74921e-21)
(0.072995 -0.00753978 -7.78222e-21)
(0.0836593 -0.00845736 1.19416e-19)
(0.0966507 -0.00343976 -7.27392e-20)
(0.0295845 0.000985803 2.28609e-19)
(0.0376062 -0.00045008 1.67637e-19)
(0.049514 -0.00490312 -4.13332e-21)
(0.0564676 -0.00585182 0)
(0.0622853 -0.00507866 5.18251e-20)
(0.0693968 0.00102692 0)
(0.0277436 -0.00249007 -2.41411e-19)
(0.0310128 -0.000935189 -1.67541e-19)
(0.0376152 -0.00396412 4.03411e-21)
(0.0400165 -0.00342053 -5.63559e-20)
(0.0415248 -0.00126206 -6.3265e-20)
(0.0439306 0.00553983 1.14248e-20)
(0.0232432 -0.00547989 6.64538e-20)
(0.0234857 -0.000580174 8.14433e-20)
(0.0254571 -0.00235743 2.82606e-20)
(0.0238752 -0.000566741 5.8507e-20)
(0.0216591 0.00262314 0)
(0.0203582 0.00977158 5.64293e-21)
(0.0140927 -0.0074557 3.84286e-20)
(0.0150639 0.000151281 -1.27632e-21)
(0.0132677 -0.000401821 -2.97704e-20)
(0.00825855 0.00246028 -1.68996e-21)
(0.00292223 0.0063314 1.51097e-20)
(-0.00118911 0.0134454 -2.72435e-21)
(0.0058732 -0.008131 3.63826e-20)
(0.00632504 0.000839358 0)
(0.00134543 0.00167154 7.69815e-21)
(-0.00661869 0.00547265 4.21495e-22)
(-0.014502 0.0096831 -6.17632e-21)
(-0.0205958 0.016368 3.31623e-22)
(-0.000565035 -0.00842481 0)
(-0.00223715 0.00143219 -1.28676e-21)
(-0.0100281 0.00373893 -6.89846e-21)
(-0.0205716 0.00836238 0)
(-0.0304827 0.0125728 -5.89783e-21)
(-0.0377922 0.0184041 0)
(-0.00600529 -0.00820708 -1.47318e-19)
(-0.0103398 0.00202284 0)
(-0.0206458 0.00575621 3.97108e-21)
(-0.0334666 0.0110892 -6.69649e-21)
(-0.0449444 0.0149566 2.93251e-21)
(-0.0527647 0.0194772 4.10365e-20)
(-0.0108086 -0.0073654 1.47266e-19)
(-0.0177986 0.00267583 -8.27838e-20)
(-0.0303607 0.00772365 0)
(-0.045217 0.0136676 6.71032e-21)
(-0.0578672 0.0168539 -5.8668e-21)
(-0.0655531 0.01956 -4.09536e-20)
(-0.0151293 -0.00592761 6.99027e-21)
(-0.0244805 0.00343059 1.63825e-19)
(-0.0390701 0.00967112 -8.05993e-21)
(-0.0557719 0.0161551 6.79268e-21)
(-0.0692375 0.0183343 0)
(-0.0762844 0.0186963 4.05827e-20)
(-0.0190241 -0.00399109 0)
(-0.0302942 0.00432934 -8.39593e-20)
(-0.0467079 0.0116483 1.30718e-19)
(-0.0651047 0.0186431 0)
(-0.0790399 0.019543 1.16082e-20)
(-0.0851629 0.0169958 -5.12277e-20)
(-0.0224301 -0.00179576 -1.4104e-20)
(-0.0351875 0.00542115 1.76332e-19)
(-0.0532389 0.0137108 -1.32589e-19)
(-0.0731756 0.0212493 1.13677e-19)
(-0.0873159 0.0207147 0)
(-0.0923946 0.0146445 0)
(-0.0251303 0.000442694 0)
(-0.0391418 0.00677069 -1.73716e-19)
(-0.058655 0.0159062 0)
(-0.0799478 0.0241138 -1.15768e-19)
(-0.0940431 0.0222112 -9.98767e-20)
(-0.0982212 0.0119138 6.60241e-20)
(-0.0280129 0.00476528 0)
(-0.0421029 0.00852196 0)
(-0.0629798 0.0182624 0)
(-0.0853762 0.0273696 0)
(-0.0991658 0.0243909 7.67428e-20)
(-0.102823 0.00934106 4.51643e-20)
(-0.0293456 0.00787947 0)
(-0.044147 0.0106746 0)
(-0.0662588 0.0207501 -1.46029e-19)
(-0.0894131 0.0311011 1.27134e-19)
(-0.10237 0.0278023 1.0856e-19)
(-0.106433 0.00764022 -9.16876e-20)
(-0.0304156 0.0105923 3.57891e-21)
(-0.0459273 0.0129666 0)
(-0.0685394 0.0232353 1.52176e-19)
(-0.0919466 0.0352765 -1.31878e-19)
(-0.103042 0.0331313 -8.36239e-20)
(-0.109231 0.00787455 -2.49749e-20)
(-0.0319653 0.0136291 -2.4645e-19)
(-0.0475231 0.0152411 6.15672e-21)
(-0.0698025 0.025498 0)
(-0.0927432 0.0397052 1.7634e-20)
(-0.100169 0.0412866 -1.50672e-20)
(-0.111277 0.0114559 0)
(-0.0331842 0.015795 2.58198e-19)
(-0.0488042 0.0174449 0)
(-0.0699781 0.0273376 -1.72112e-19)
(-0.0915361 0.0440833 0)
(-0.0922731 0.0536283 -1.28946e-19)
(-0.11206 0.0197351 -1.31371e-19)
(-0.0336579 0.0181434 1.4315e-20)
(-0.0494797 0.0201125 -1.43503e-20)
(-0.0688084 0.0289684 1.84804e-19)
(-0.0881028 0.0480326 1.61702e-19)
(-0.077348 0.073361 3.69715e-20)
(-0.110351 0.0322924 1.04789e-19)
(-0.0316563 0.0243936 0)
(-0.047453 0.0264152 -1.55117e-20)
(-0.0654336 0.0329766 1.21089e-20)
(-0.0806891 0.0501936 -3.21021e-19)
(-0.0553106 0.102513 8.54915e-20)
(-0.0988604 0.0459421 3.63926e-20)
(0.158889 0.00145017 -5.78751e-20)
(0.304245 0.0905759 -3.49513e-20)
(0.485955 0.13357 3.11459e-20)
(0.639858 0.153355 0)
(0.768232 0.1573 -7.46941e-20)
(0.872734 0.151152 5.83966e-20)
(0.95574 0.138873 0)
(1.02084 0.123038 3.63686e-20)
(1.07166 0.105558 0)
(1.11136 0.0877951 0)
(1.14255 0.0706933 1.14762e-20)
(1.16732 0.0548935 -2.67416e-21)
(1.18724 0.0408431 -3.68181e-21)
(1.20359 0.0288225 1.14804e-20)
(1.21723 0.0189096 -2.86664e-21)
(1.22875 0.0109969 4.32116e-21)
(1.2385 0.00491728 -3.15014e-21)
(1.24686 0.000551736 0)
(1.25411 -0.00211825 7.75077e-21)
(1.26013 -0.00331052 -7.40667e-21)
(1.26468 -0.00327751 0)
(1.2674 -0.0022492 0)
(1.26884 -0.00196752 1.81059e-20)
(1.27387 -0.00883326 -1.75142e-20)
(0.188314 -0.00663702 -1.63578e-19)
(0.278153 0.0587785 -3.29337e-20)
(0.41785 0.104336 5.63948e-20)
(0.551221 0.131517 1.87742e-20)
(0.669255 0.142736 3.56467e-20)
(0.769101 0.143024 -5.85996e-20)
(0.852474 0.135679 0)
(0.921171 0.123355 0)
(0.977731 0.108053 0)
(1.02456 0.0912897 -1.48523e-20)
(1.06372 0.0742484 1.401e-20)
(1.09695 0.0578298 -8.19842e-21)
(1.1256 0.0426389 -4.78808e-21)
(1.15042 0.0291355 0)
(1.17229 0.0175956 0)
(1.19193 0.00804792 -1.42104e-21)
(1.20946 0.000472514 0)
(1.22515 -0.00518749 0)
(1.23913 -0.00907238 0)
(1.2515 -0.0115923 8.43236e-21)
(1.26231 -0.0125021 -8.10356e-21)
(1.27194 -0.0125848 1.55519e-20)
(1.27973 -0.00942836 -1.48338e-20)
(1.29873 -0.0148178 0)
(0.174187 -0.00150086 1.70696e-19)
(0.239154 0.0460033 -1.15894e-19)
(0.344 0.0878865 8.1803e-20)
(0.454021 0.117742 0)
(0.557618 0.134495 0)
(0.648419 0.140378 0)
(0.726504 0.138455 0)
(0.792862 0.130586 0)
(0.849287 0.118768 2.42299e-20)
(0.897605 0.104521 -2.97387e-21)
(0.939532 0.0890048 -2.44006e-20)
(0.97659 0.0731247 0)
(1.0101 0.0576747 3.33064e-21)
(1.04128 0.0432514 -8.37849e-22)
(1.07072 0.0302086 0)
(1.09849 0.0187405 -2.19285e-21)
(1.12484 0.00892999 0)
(1.14995 0.000814832 0)
(1.17374 -0.00542226 0)
(1.19632 -0.0100454 3.65412e-21)
(1.21655 -0.0123684 0)
(1.23666 -0.0147166 0)
(1.25036 -0.012608 0)
(1.2855 -0.017924 0)
(0.143403 0.00351976 -9.28302e-20)
(0.190898 0.0417481 1.93985e-19)
(0.267116 0.0803513 -1.35801e-19)
(0.352712 0.111612 2.36048e-20)
(0.436666 0.132551 -7.05653e-20)
(0.513242 0.14432 6.04332e-20)
(0.580287 0.148297 -2.02247e-20)
(0.638149 0.146057 3.63465e-20)
(0.687802 0.139427 -4.56349e-20)
(0.730677 0.129581 5.18656e-20)
(0.768241 0.117555 -1.86789e-20)
(0.80191 0.104221 8.92054e-21)
(0.832945 0.0902945 -9.83209e-22)
(0.862422 0.0763765 -1.49552e-22)
(0.891211 0.0629847 1.07251e-23)
(0.919924 0.0504485 1.50379e-21)
(0.948827 0.0389289 1.09979e-21)
(0.978075 0.0286019 5.47108e-21)
(1.00764 0.019809 -1.19548e-20)
(1.03772 0.0127087 2.99104e-21)
(1.06688 0.00773164 0)
(1.09805 0.00370153 0)
(1.12091 0.00271207 0)
(1.16742 -0.00406379 3.83276e-22)
(0.109899 0.00871313 -8.8222e-20)
(0.142687 0.0416555 -1.24703e-19)
(0.19545 0.077511 2.57018e-20)
(0.257559 0.109304 -2.33056e-20)
(0.320697 0.133694 3.63251e-20)
(0.379929 0.150451 -5.64122e-20)
(0.432663 0.160131 2.27688e-20)
(0.478656 0.163774 -5.35258e-20)
(0.518215 0.162563 1.52321e-20)
(0.55234 0.157437 0)
(0.582197 0.149242 1.42067e-20)
(0.608967 0.138731 -7.63282e-21)
(0.633769 0.12661 4.95382e-21)
(0.657606 0.113546 9.60914e-22)
(0.681312 0.100115 -1.05385e-23)
(0.705522 0.0867339 6.49231e-22)
(0.730644 0.0737251 -8.17857e-22)
(0.756914 0.061569 -3.27579e-21)
(0.784415 0.0508907 2.98496e-21)
(0.813208 0.0421074 0)
(0.842839 0.0353178 3.88078e-21)
(0.873917 0.0305613 -9.57524e-21)
(0.903581 0.0272505 -1.16643e-21)
(0.945147 0.0203977 3.72626e-21)
(0.0775682 0.0139019 8.35691e-20)
(0.0986431 0.0432784 -1.3612e-20)
(0.133422 0.0765671 0)
(0.175878 0.108037 -4.35795e-20)
(0.220362 0.134428 0)
(0.263034 0.154735 -1.61317e-20)
(0.301665 0.168798 3.53018e-20)
(0.335543 0.177037 0)
(0.364724 0.180146 0)
(0.389807 0.178756 1.23898e-20)
(0.411608 0.173527 -7.77545e-21)
(0.431032 0.165138 7.19324e-21)
(0.448983 0.154272 0)
(0.466312 0.141605 0)
(0.483761 0.1278 0)
(0.501931 0.113419 -1.54357e-21)
(0.521262 0.0989282 5.44705e-22)
(0.542051 0.0849657 4.08806e-24)
(0.564465 0.0723667 0)
(0.588554 0.0616978 4.48892e-22)
(0.614201 0.0530816 1.67974e-21)
(0.641532 0.0464916 -3.83994e-21)
(0.670639 0.0410414 1.05276e-21)
(0.704947 0.0346515 4.65795e-21)
(0.0475354 0.0186912 -6.54416e-20)
(0.0598048 0.0453704 5.8127e-20)
(0.0815198 0.0762357 0)
(0.109057 0.106707 6.39487e-20)
(0.13869 0.13379 -1.77975e-20)
(0.167603 0.156074 4.40412e-20)
(0.194038 0.172925 -4.9959e-20)
(0.217215 0.184301 -1.02689e-20)
(0.237006 0.190471 8.41776e-21)
(0.253726 0.1918 -1.22529e-20)
(0.267914 0.188766 -1.49201e-20)
(0.280236 0.181926 -2.66728e-21)
(0.291412 0.171885 0)
(0.302164 0.159294 3.96597e-21)
(0.313178 0.144825 -3.77604e-21)
(0.325022 0.129119 1.53002e-21)
(0.338161 0.112821 -2.93585e-21)
(0.352984 0.0967774 2.04734e-21)
(0.369765 0.0818654 0)
(0.388599 0.0685637 -4.4547e-22)
(0.409474 0.0570241 -6.53582e-22)
(0.432521 0.0471722 0)
(0.458244 0.0384603 3.24821e-21)
(0.488102 0.0307763 -3.20608e-21)
(0.0202995 0.0227439 -3.84925e-21)
(0.0263434 0.0472166 0)
(0.0390319 0.0758533 1.17774e-20)
(0.0560165 0.104977 -1.01925e-20)
(0.0747797 0.131894 9.2357e-21)
(0.0933136 0.155029 7.68767e-21)
(0.110277 0.173473 1.23014e-20)
(0.124967 0.18685 1.0756e-20)
(0.137183 0.195105 7.76795e-22)
(0.147071 0.198363 0)
(0.155002 0.196907 5.4819e-21)
(0.161486 0.191157 -9.75403e-21)
(0.167102 0.181595 8.45126e-21)
(0.172445 0.16878 -3.70168e-21)
(0.178191 0.153296 0)
(0.184953 0.135782 -3.51286e-21)
(0.193266 0.117003 3.35969e-21)
(0.203588 0.0978685 0)
(0.216247 0.0792227 -2.5307e-21)
(0.231363 0.0617378 3.40712e-21)
(0.248654 0.0458532 -6.09349e-22)
(0.26783 0.0315426 4.18616e-22)
(0.290001 0.0187679 -6.28257e-22)
(0.317071 0.00890851 5.83323e-22)
(-0.00382981 0.0257938 7.3672e-21)
(-0.00171782 0.0482997 0)
(0.00527712 0.0749027 -2.85302e-20)
(0.0154776 0.102583 5.00534e-21)
(0.027077 0.128901 -3.99705e-21)
(0.0386552 0.15224 3.6879e-21)
(0.0491922 0.171532 2.9721e-21)
(0.0581228 0.186158 -1.02606e-20)
(0.0652859 0.195817 2.21319e-21)
(0.0707666 0.200402 0)
(0.0748782 0.199964 0)
(0.0780618 0.194743 5.17732e-21)
(0.0809985 0.184907 -5.9984e-21)
(0.0843816 0.170856 8.09582e-21)
(0.0888638 0.153104 1.07068e-21)
(0.0950823 0.13237 -3.04178e-21)
(0.103492 0.109532 2.90878e-21)
(0.114473 0.0856029 0)
(0.128329 0.0618013 0)
(0.145446 0.0397839 -5.08602e-22)
(0.16528 0.0203815 -8.88769e-22)
(0.187298 0.00343299 1.67887e-21)
(0.212617 -0.0102838 3.99369e-23)
(0.242515 -0.0203857 -5.04893e-22)
(-0.0246498 0.0276177 -4.13405e-22)
(-0.0243624 0.0482168 -3.79687e-22)
(-0.0201927 0.07292 3.43575e-22)
(-0.0134904 0.0991674 -4.46082e-21)
(-0.00566231 0.124672 0)
(0.00230495 0.147803 -2.86823e-21)
(0.00973161 0.167399 -3.3202e-21)
(0.0162645 0.182649 0)
(0.0218635 0.193049 -4.39591e-21)
(0.0266326 0.198266 -1.50188e-21)
(0.0308894 0.198124 -1.9952e-23)
(0.0350597 0.192617 -4.07581e-22)
(0.0396634 0.181801 9.75485e-22)
(0.0452094 0.166146 -3.14077e-22)
(0.0521471 0.146206 1.47221e-22)
(0.0609126 0.122514 -5.69173e-22)
(0.0720467 0.0959428 0)
(0.0860297 0.0675055 3.99449e-22)
(0.103214 0.038195 -3.84067e-22)
(0.123707 0.00863687 -4.65924e-22)
(0.14832 -0.0195369 -1.72753e-22)
(0.177493 -0.0433751 5.75112e-22)
(0.210641 -0.0612302 -1.02754e-22)
(0.245963 -0.0728516 -1.95642e-23)
(-0.0420418 0.0280224 -7.04447e-21)
(-0.0415796 0.046641 -2.88676e-21)
(-0.0376748 0.0694739 2.61075e-21)
(-0.0314546 0.0942818 2.6743e-22)
(-0.0240436 0.118885 3.81124e-21)
(-0.0162176 0.141649 6.31722e-21)
(-0.00846632 0.161301 -2.84666e-21)
(-0.00103366 0.176848 0)
(0.00600531 0.187594 2.19499e-21)
(0.0128407 0.193062 1.9791e-21)
(0.0197476 0.192909 0)
(0.0270945 0.186949 0)
(0.035327 0.175136 0)
(0.0449406 0.157515 0)
(0.0566342 0.134317 -6.03927e-21)
(0.0711002 0.106156 5.78129e-21)
(0.0890289 0.0737524 0)
(0.111098 0.0381557 -4.63819e-21)
(0.137814 0.000575471 4.35406e-22)
(0.169447 -0.0375884 3.87453e-21)
(0.206153 -0.0746848 0)
(0.247814 -0.108346 -4.10733e-22)
(0.29225 -0.135193 0)
(0.334666 -0.15021 0)
(-0.0559648 0.0268436 -3.31672e-20)
(-0.0533916 0.0433101 2.26717e-20)
(-0.0473714 0.0642662 9.55035e-21)
(-0.0389946 0.0877158 -1.96973e-20)
(-0.0293813 0.111403 0)
(-0.0190647 0.13359 0)
(-0.0082745 0.15296 1.81765e-22)
(0.00293131 0.168503 -1.86126e-20)
(0.0146163 0.179363 2.58552e-22)
(0.0270016 0.184876 0)
(0.0404189 0.184524 7.85497e-21)
(0.0552996 0.177927 -1.52338e-20)
(0.0721566 0.164843 0)
(0.0915438 0.145201 -7.88524e-21)
(0.114006 0.119097 0)
(0.140041 0.0868874 0)
(0.170068 0.0492126 0)
(0.20421 0.00696216 0)
(0.242512 -0.0386415 0)
(0.285063 -0.0860992 1.32441e-20)
(0.331798 -0.133639 -1.8262e-20)
(0.38209 -0.178971 0)
(0.433256 -0.217941 -2.52059e-21)
(0.478389 -0.238545 0)
(-0.0664355 0.0239474 8.46801e-20)
(-0.0598463 0.0380393 -1.74726e-20)
(-0.0496353 0.0570203 -4.42314e-20)
(-0.0368173 0.079052 1.54868e-20)
(-0.0224077 0.101776 0)
(-0.00671952 0.123399 2.05852e-20)
(0.0101644 0.142482 -1.76822e-20)
(0.0283432 0.15788 8.79266e-21)
(0.0480422 0.168647 2.49119e-20)
(0.0695887 0.173987 -3.19103e-20)
(0.0933866 0.173233 -4.04597e-22)
(0.119887 0.165844 7.80038e-21)
(0.149549 0.15142 0)
(0.182774 0.129754 7.91343e-21)
(0.219835 0.100884 0)
(0.260805 0.0651608 0)
(0.305475 0.0232453 0)
(0.353484 -0.0238434 0)
(0.404347 -0.0747197 0)
(0.457387 -0.12788 -1.78462e-20)
(0.511647 -0.181513 4.16074e-20)
(0.566127 -0.233853 -1.82079e-20)
(0.618465 -0.281716 1.05906e-20)
(0.663278 -0.311234 -7.83729e-21)
(-0.0734816 0.0192236 -3.96188e-20)
(-0.0609121 0.0307257 -1.09518e-20)
(-0.0444428 0.0476858 4.2797e-20)
(-0.0249745 0.0683525 -2.0412e-20)
(-0.0034557 0.0901141 1.2064e-20)
(0.0200332 0.111064 -2.05831e-20)
(0.0455992 0.129672 3.45665e-20)
(0.0734991 0.144699 1.5224e-20)
(0.104082 0.1551 0)
(0.137751 0.15997 0)
(0.174918 0.158537 1.68258e-20)
(0.215944 0.150173 1.80305e-20)
(0.261085 0.134429 -5.2642e-20)
(0.310409 0.111113 7.18172e-20)
(0.363724 0.0803429 -3.57018e-20)
(0.420558 0.0426203 0)
(0.480217 -0.00127664 0)
(0.541785 -0.0501506 -3.43236e-20)
(0.604217 -0.102338 6.39368e-20)
(0.665944 -0.156122 -2.97714e-20)
(0.725418 -0.209863 1.16936e-20)
(0.781673 -0.261777 0)
(0.831743 -0.30958 5.3437e-21)
(0.877034 -0.345084 0)
(-0.0771005 0.012574 -1.18764e-20)
(-0.0564511 0.0213292 1.06136e-20)
(-0.0317111 0.036257 0)
(-0.00355232 0.0556321 0)
(0.0271431 0.0764472 -1.92621e-20)
(0.060539 0.0966604 0)
(0.096921 0.114655 -1.64116e-20)
(0.136664 0.129111 -1.52648e-20)
(0.180166 0.138909 0)
(0.227796 0.143081 0)
(0.279835 0.140821 1.56794e-20)
(0.336383 0.131525 -3.26288e-20)
(0.397327 0.114824 0)
(0.462272 0.0906449 -5.65058e-20)
(0.530584 0.0591331 3.66779e-20)
(0.601357 0.0209764 0)
(0.673454 -0.0226936 0)
(0.745301 -0.0703991 -1.75334e-20)
(0.815037 -0.120599 0)
(0.881064 -0.171406 -1.37503e-20)
(0.941817 -0.220929 -1.17318e-20)
(0.99625 -0.267089 -7.97285e-21)
(1.0396 -0.307197 -1.82782e-20)
(1.08319 -0.339393 1.24483e-20)
(-0.0771939 0.00391446 -1.08876e-19)
(-0.0461167 0.00992546 1.03012e-20)
(-0.0111019 0.0229432 -1.35255e-20)
(0.0276492 0.0412204 -3.02615e-20)
(0.0693443 0.0612046 1.9354e-20)
(0.114394 0.0807148 -4.24217e-20)
(0.163204 0.0980567 2.23842e-22)
(0.216168 0.11186 1.26261e-20)
(0.273605 0.120976 -1.35972e-20)
(0.335696 0.124446 9.43064e-21)
(0.402437 0.121527 5.51836e-20)
(0.473569 0.111696 4.6456e-20)
(0.548653 0.094538 -3.26407e-20)
(0.626869 0.0702471 -5.36145e-20)
(0.707112 0.0393037 3.82519e-20)
(0.787827 0.00256005 -9.11609e-22)
(0.867185 -0.0388123 0)
(0.943293 -0.083316 -8.07417e-20)
(1.01455 -0.129123 1.22046e-19)
(1.07934 -0.174357 5.82447e-21)
(1.1353 -0.217099 -8.29259e-20)
(1.18184 -0.254784 4.31334e-20)
(1.21241 -0.284832 6.88459e-21)
(1.24618 -0.306502 -2.33272e-22)
(-0.0734857 -0.00681825 1.11855e-19)
(-0.0292543 -0.00323888 1.66356e-20)
(0.0180348 0.00824158 -1.49949e-20)
(0.0691414 0.0258068 4.28848e-20)
(0.123402 0.0452475 2.83539e-20)
(0.181458 0.0642576 4.99906e-21)
(0.243736 0.0811017 8.74581e-21)
(0.310518 0.094406 3.01327e-20)
(0.381892 0.103076 2.0423e-20)
(0.457798 0.106172 -7.40977e-20)
(0.538008 0.102849 -3.26694e-21)
(0.621892 0.092916 -3.15186e-21)
(0.708398 0.0762769 3.27933e-20)
(0.796032 0.0530998 3.46181e-20)
(0.883117 0.0240309 3.56389e-20)
(0.967851 -0.00998047 -4.41276e-21)
(1.04857 -0.0475067 -6.39355e-20)
(1.12332 -0.0870123 9.37504e-20)
(1.1903 -0.126843 7.33582e-20)
(1.24708 -0.164988 -4.7917e-20)
(1.29159 -0.199153 2.86349e-20)
(1.32315 -0.226448 -3.6754e-20)
(1.33482 -0.246337 -2.53688e-21)
(1.35023 -0.255269 4.87501e-22)
(-0.0654058 -0.0196164 -1.36827e-20)
(-0.0048322 -0.0176328 0)
(0.0566588 -0.00698857 0)
(0.121672 0.0105078 1.5815e-20)
(0.189766 0.0299189 -5.51044e-20)
(0.26175 0.0488668 6.05921e-21)
(0.337949 0.0656492 -2.67515e-20)
(0.418425 0.078915 -3.83065e-20)
(0.503165 0.0874539 1.72839e-20)
(0.591863 0.0905672 2.21236e-20)
(0.683479 0.0877218 2.50507e-20)
(0.776592 0.0785528 -5.11904e-20)
(0.869666 0.0631896 -5.41154e-20)
(0.961193 0.0420043 8.72751e-20)
(1.04959 0.0158461 -5.70512e-20)
(1.13288 -0.0143216 -3.14219e-20)
(1.20933 -0.0471823 0)
(1.27598 -0.0812158 2.06838e-20)
(1.33193 -0.113931 -6.65564e-21)
(1.37217 -0.143398 0)
(1.39573 -0.168178 0)
(1.40395 -0.187303 9.13102e-21)
(1.39669 -0.198676 -1.71409e-22)
(1.39319 -0.196809 -6.34279e-21)
(-0.0519356 -0.0342729 9.33132e-20)
(0.0285632 -0.0323536 1.45098e-20)
(0.105902 -0.0214535 -1.30329e-20)
(0.186043 -0.00311039 -1.32167e-20)
(0.268853 0.0170222 1.21306e-20)
(0.355205 0.0366135 4.50272e-21)
(0.445313 0.0539279 2.75828e-20)
(0.539193 0.0676514 -1.16894e-20)
(0.636099 0.0768979 0)
(0.734598 0.0807907 -3.99759e-21)
(0.833049 0.0788636 2.07791e-20)
(0.930312 0.0710736 -1.97205e-20)
(1.02494 0.0577115 2.53214e-20)
(1.1152 0.0391362 4.82967e-20)
(1.19927 0.0161365 -9.318e-20)
(1.27443 -0.0103258 4.49957e-20)
(1.33943 -0.0382265 0)
(1.38853 -0.0653671 -7.27425e-21)
(1.4185 -0.0909282 -1.69572e-20)
(1.43372 -0.114236 2.47956e-20)
(1.43687 -0.132954 -3.7853e-20)
(1.42854 -0.144677 3.06346e-20)
(1.40917 -0.15161 -7.95112e-21)
(1.38919 -0.141759 4.5478e-21)
(-0.0314519 -0.050128 -9.47933e-20)
(0.0726432 -0.0460947 -6.15495e-20)
(0.166799 -0.0334033 -3.7361e-20)
(0.262774 -0.0131188 0)
(0.360707 0.00865401 0)
(0.461572 0.0296247 1.38423e-20)
(0.565273 0.0483015 -3.73399e-21)
(0.670597 0.0633407 1.98278e-20)
(0.775665 0.0736754 9.19275e-21)
(0.879109 0.0787557 -4.13079e-21)
(0.979822 0.0782633 1.2467e-20)
(1.07641 0.0720733 1.37175e-20)
(1.16692 0.0604387 -1.42984e-20)
(1.24932 0.0439242 0)
(1.32187 0.0237641 0)
(1.37934 0.00180367 0)
(1.4162 -0.0211767 0)
(1.43823 -0.0437599 -3.08657e-20)
(1.4489 -0.0654067 1.2123e-20)
(1.44952 -0.0826555 -4.93383e-21)
(1.43843 -0.0962896 0)
(1.41805 -0.105443 -1.84211e-21)
(1.39112 -0.10868 3.23439e-21)
(1.36284 -0.0947607 -2.91119e-21)
(-0.00146683 -0.0656954 2.01717e-20)
(0.128992 -0.0570563 -1.07978e-21)
(0.239884 -0.0407466 2.64207e-20)
(0.351681 -0.0174826 0)
(0.46484 0.00679043 -1.10794e-20)
(0.579519 0.0300891 -1.03589e-20)
(0.694122 0.0506784 -9.40229e-21)
(0.806428 0.0673023 -1.27709e-20)
(0.915166 0.0790737 -9.15202e-22)
(1.01906 0.0853681 -1.8774e-20)
(1.11644 0.0857872 -1.25553e-20)
(1.20551 0.0803909 -1.3807e-20)
(1.28439 0.0695576 1.43452e-20)
(1.35067 0.0547181 2.66373e-20)
(1.39634 0.0371455 -1.86858e-20)
(1.42497 0.0179325 -4.2162e-21)
(1.44187 -0.00317077 -2.83288e-21)
(1.45005 -0.0228282 0)
(1.44801 -0.0396405 7.10453e-21)
(1.43587 -0.0542911 -4.79953e-21)
(1.41587 -0.0653894 0)
(1.39008 -0.0722593 -4.35433e-21)
(1.36005 -0.0726901 1.64663e-20)
(1.32712 -0.0561396 -1.90782e-20)
(0.0418588 -0.0779755 1.06735e-19)
(0.198028 -0.0626669 3.01873e-20)
(0.324587 -0.0413291 1.03141e-20)
(0.451665 -0.01444 7.05491e-21)
(0.57895 0.0130339 4.67156e-21)
(0.70449 0.0389814 6.6479e-21)
(0.82555 0.0617091 1.5849e-21)
(0.940442 0.0798432 4.28388e-21)
(1.04763 0.0924427 3.21118e-21)
(1.14523 0.0988783 0)
(1.23162 0.0989562 0)
(1.30572 0.0931252 1.00059e-20)
(1.36304 0.0824538 -9.41687e-21)
(1.39941 0.0677257 -1.1539e-21)
(1.42225 0.0504641 -4.78051e-21)
(1.43625 0.031232 5.80855e-21)
(1.44208 0.0141721 2.844e-21)
(1.43789 -0.00288255 4.50397e-21)
(1.42555 -0.0182694 2.81517e-21)
(1.40678 -0.0307471 1.15664e-20)
(1.38307 -0.0399432 -4.56681e-20)
(1.35527 -0.0452398 5.05876e-20)
(1.32412 -0.0433673 -1.62281e-20)
(1.28865 -0.0254155 0)
(0.103622 -0.0803458 -1.06871e-19)
(0.277683 -0.0596083 7.28591e-20)
(0.418571 -0.0333766 1.71504e-20)
(0.559694 -0.0030218 5.60163e-21)
(0.698399 0.0277324 2.8729e-21)
(0.830547 0.0562597 -1.50037e-21)
(0.953218 0.0805144 -6.47376e-22)
(1.0646 0.0990732 3.05574e-22)
(1.16269 0.110924 -2.63416e-21)
(1.24618 0.115665 -1.81158e-22)
(1.31487 0.113888 1.70192e-22)
(1.36398 0.106275 0)
(1.3945 0.0940881 -4.50438e-21)
(1.41354 0.0779719 4.34566e-21)
(1.4255 0.0611358 5.53198e-21)
(1.42848 0.0446814 -4.68279e-21)
(1.42296 0.027835 2.98481e-20)
(1.41085 0.012336 -1.16556e-20)
(1.39361 -0.00101072 2.43434e-20)
(1.37243 -0.0117315 -1.44569e-20)
(1.34786 -0.0195858 6.37737e-21)
(1.31979 -0.0236093 -3.64171e-20)
(1.28853 -0.019929 -1.10441e-20)
(1.25172 -0.00146532 3.6965e-20)
(0.187618 -0.0597708 0)
(0.362066 -0.0453025 -4.70196e-20)
(0.517431 -0.0168004 -2.17049e-20)
(0.671215 0.0165049 -4.36637e-21)
(0.817702 0.0500356 -6.75629e-21)
(0.951106 0.0802276 1.00998e-21)
(1.06885 0.104538 0)
(1.16903 0.12147 -9.94396e-21)
(1.25068 0.13029 1.43415e-21)
(1.31475 0.131763 4.60412e-21)
(1.35858 0.126533 0)
(1.3852 0.116201 7.09919e-21)
(1.40178 0.10166 -6.79163e-21)
(1.41149 0.087336 0)
(1.41219 0.0711383 -2.51558e-20)
(1.40592 0.0545424 3.15315e-20)
(1.39444 0.0388991 -2.73278e-20)
(1.37896 0.0248717 0)
(1.36033 0.0129488 1.34467e-20)
(1.33901 0.0035049 -2.12625e-20)
(1.31467 -0.00324261 -4.48618e-20)
(1.28681 -0.00620185 4.26151e-20)
(1.25555 -0.00118096 0)
(1.21801 0.0171142 0)
(-0.0694744 -0.0235599 -3.16619e-21)
(-0.170428 -0.116036 -1.62751e-19)
(-0.238924 -0.19779 1.74505e-20)
(-0.228914 -0.195888 -1.1993e-20)
(-0.183342 -0.15324 2.92938e-21)
(-0.0275848 0.0373579 0)
(-0.127523 -0.0476241 0)
(-0.215861 -0.136386 1.4535e-19)
(-0.240615 -0.179218 1.06286e-20)
(-0.203264 -0.166805 -6.98627e-20)
(-0.118867 -0.123428 -2.86526e-20)
(0.0414552 -0.0074571 -1.72274e-21)
(-0.152154 -0.0560404 1.47307e-19)
(-0.224243 -0.12218 -1.31534e-19)
(-0.226147 -0.15647 0)
(-0.163129 -0.141294 1.21871e-19)
(-0.0511547 -0.101856 2.15939e-20)
(0.119333 -0.0282557 6.31429e-21)
(-0.172721 -0.0622916 8.03494e-21)
(-0.230457 -0.10931 2.42759e-19)
(-0.210974 -0.135989 -4.84769e-21)
(-0.126227 -0.119401 -5.27393e-20)
(0.00671719 -0.084451 -4.86446e-20)
(0.186845 -0.030725 4.54176e-20)
(-0.199242 -0.0630194 -2.68897e-19)
(-0.234927 -0.100494 -1.79172e-19)
(-0.196414 -0.116937 -5.389e-21)
(-0.0934763 -0.100467 -3.59256e-21)
(0.0567397 -0.0691206 5.43211e-20)
(0.248765 -0.0251434 -2.55943e-20)
(-0.223008 -0.0591918 1.90693e-19)
(-0.236731 -0.0920527 1.16985e-19)
(-0.18262 -0.0998508 -2.81616e-21)
(-0.0647523 -0.0836307 0)
(0.100437 -0.0543149 2.89149e-20)
(0.30531 -0.0140022 0)
(-0.238329 -0.0564136 -1.95633e-19)
(-0.236692 -0.0835616 -1.17606e-19)
(-0.170113 -0.0844628 2.83371e-21)
(-0.0400401 -0.0682785 -3.79969e-20)
(0.138541 -0.0395552 -3.57919e-20)
(0.356859 0.000775609 6.33259e-21)
(-0.251611 -0.0530284 4.63308e-20)
(-0.235722 -0.0751765 5.73433e-20)
(-0.159406 -0.0704415 2.06787e-20)
(-0.0194566 -0.0540931 4.01513e-20)
(0.171382 -0.0248572 0)
(0.40338 0.0177086 2.78355e-21)
(-0.263093 -0.0504191 2.57766e-20)
(-0.234488 -0.066573 -9.08765e-22)
(-0.150903 -0.0574977 -2.1857e-20)
(-0.00317843 -0.0409164 -1.24759e-21)
(0.198887 -0.0104369 9.99062e-21)
(0.444458 0.0357188 -1.70637e-21)
(-0.272105 -0.0485425 2.56305e-20)
(-0.233356 -0.0578198 0)
(-0.144925 -0.0453874 5.9077e-21)
(0.00856792 -0.0286901 3.11747e-22)
(0.220775 0.00342164 -4.15648e-21)
(0.479585 0.0539779 1.71511e-22)
(-0.278251 -0.0471112 0)
(-0.232604 -0.0489197 -9.53266e-22)
(-0.14173 -0.0339124 -5.34146e-21)
(0.0155218 -0.0174195 0)
(0.23667 0.0164141 -4.14189e-21)
(0.508285 0.0718375 0)
(-0.28148 -0.0457347 -1.09016e-19)
(-0.232439 -0.0398536 0)
(-0.141516 -0.0229102 3.10406e-21)
(0.0174082 -0.00714403 -5.16578e-21)
(0.246132 0.0282494 2.22067e-21)
(0.530178 0.0887483 2.49754e-20)
(-0.281777 -0.0439639 1.09074e-19)
(-0.232978 -0.0306123 -6.19398e-20)
(-0.144428 -0.0122438 0)
(0.0139549 0.00210949 5.05201e-21)
(0.248675 0.0386752 -4.48405e-21)
(0.544935 0.104191 -2.50994e-20)
(-0.27922 -0.0413236 5.12858e-21)
(-0.234209 -0.0211984 1.23867e-19)
(-0.150536 -0.00179899 -6.43596e-21)
(0.00492492 0.0103341 5.52422e-21)
(0.243814 0.0474703 0)
(0.552106 0.117682 2.37397e-20)
(-0.273991 -0.037379 0)
(-0.236016 -0.0116019 -6.42316e-20)
(-0.159787 0.0084994 1.06435e-19)
(-0.00980807 0.0175582 0)
(0.230959 0.0545694 7.46536e-21)
(0.551176 0.128782 -3.05659e-20)
(-0.266358 -0.0316994 -1.02028e-20)
(-0.238241 -0.00182235 1.3411e-19)
(-0.171975 0.0186607 -1.08141e-19)
(-0.0303603 0.0238836 9.21552e-20)
(0.209371 0.060174 0)
(0.541375 0.136824 0)
(-0.257044 -0.0237879 0)
(-0.240674 0.00807532 -1.33374e-19)
(-0.186635 0.0286551 0)
(-0.0566727 0.0294386 -9.34039e-20)
(0.178236 0.0646034 -6.8591e-20)
(0.521799 0.141075 3.90278e-20)
(-0.249575 -0.0141431 0)
(-0.24316 0.0178311 0)
(-0.203082 0.0383558 0)
(-0.0881598 0.0344579 0)
(0.136522 0.0683832 5.39945e-20)
(0.491049 0.140546 2.27685e-20)
(-0.23423 0.00877601 0)
(-0.244142 0.0266665 0)
(-0.220273 0.0474724 -1.19206e-19)
(-0.123719 0.0391934 1.04234e-19)
(0.0830262 0.072376 7.34608e-20)
(0.447287 0.134193 -4.93968e-20)
(-0.215035 0.0173419 2.92498e-21)
(-0.241622 0.0313125 0)
(-0.236187 0.0564137 1.22431e-19)
(-0.16144 0.0438895 -1.06442e-19)
(0.0162615 0.0776798 -5.65751e-20)
(0.388801 0.121103 -1.59209e-20)
(-0.193292 0.0199147 -1.87783e-19)
(-0.234884 0.0351994 4.69734e-21)
(-0.250456 0.0659446 0)
(-0.198289 0.0489275 1.30835e-20)
(-0.0648084 0.0850549 -1.1307e-20)
(0.314575 0.100433 0)
(-0.169405 0.0229383 1.96424e-19)
(-0.223918 0.0391981 0)
(-0.262066 0.0763856 -1.38012e-19)
(-0.231308 0.0553589 0)
(-0.157663 0.0960164 -9.52761e-20)
(0.220785 0.0670389 -1.22072e-19)
(-0.142219 0.0235123 9.55285e-21)
(-0.205959 0.0418733 -9.68265e-21)
(-0.268459 0.0865375 1.45846e-19)
(-0.257494 0.0617419 1.3809e-19)
(-0.256933 0.114352 2.11254e-20)
(0.106881 0.00107399 9.75209e-20)
(-0.0791644 0.00929632 2.08386e-19)
(-0.1529 0.027602 4.9468e-21)
(-0.24623 0.0855385 0)
(-0.243274 0.0655097 -2.94443e-19)
(-0.359965 0.161925 1.64738e-19)
(0.0370679 -0.0334968 -2.68846e-19)
(0.283555 -0.00407192 5.82889e-20)
(0.44469 -0.0232838 -7.61802e-21)
(0.616333 0.00582542 2.69863e-21)
(0.781567 0.0421354 3.73859e-21)
(0.930653 0.0778302 -8.00165e-22)
(1.05884 0.107975 -4.35664e-21)
(1.1643 0.130073 0)
(1.24678 0.142956 5.69567e-21)
(1.30817 0.147249 0)
(1.34965 0.144286 0)
(1.37399 0.135378 -1.1765e-20)
(1.38892 0.122552 -3.13273e-21)
(1.39626 0.109333 1.14777e-20)
(1.39543 0.0937307 -5.31589e-20)
(1.38883 0.0777404 5.54277e-20)
(1.37814 0.0623139 1.86384e-20)
(1.36438 0.0480169 -2.80619e-20)
(1.34808 0.0353181 0)
(1.32951 0.0246385 0)
(1.30855 0.0162226 0)
(1.28449 0.010302 0)
(1.25675 0.00805553 0)
(1.2255 0.0138549 0)
(1.18775 0.031422 0)
(0.332624 -0.00465241 -5.71845e-20)
(0.52181 -0.00590791 -7.03833e-21)
(0.713524 0.0309663 9.90989e-21)
(0.886267 0.0717371 -1.27193e-21)
(1.03159 0.108257 -8.43311e-22)
(1.14764 0.136202 4.20117e-21)
(1.2351 0.153689 0)
(1.29728 0.161114 0)
(1.33865 0.160518 0)
(1.36221 0.15299 1.60393e-20)
(1.37597 0.141921 -1.50972e-20)
(1.38138 0.129245 1.44683e-20)
(1.37965 0.114208 1.50827e-20)
(1.37303 0.0986913 0)
(1.36307 0.0834976 0)
(1.35065 0.069129 -1.63008e-20)
(1.3362 0.0559833 0)
(1.31985 0.0443869 0)
(1.30156 0.0346741 0)
(1.28091 0.0270221 3.42229e-20)
(1.2571 0.0216335 -3.24479e-20)
(1.22953 0.0197447 6.97965e-20)
(1.19841 0.0257929 -6.66777e-20)
(1.16088 0.0422637 0)
(0.385454 -0.00774248 6.3195e-20)
(0.602545 0.0133886 -3.19224e-20)
(0.808923 0.0594389 1.10652e-20)
(0.98153 0.103835 0)
(1.11617 0.138973 0)
(1.21457 0.162225 0)
(1.28204 0.17369 0)
(1.32534 0.175595 0)
(1.3501 0.170065 -2.07268e-20)
(1.36329 0.160372 1.25212e-21)
(1.36761 0.147963 4.34089e-20)
(1.36546 0.133442 0)
(1.35896 0.118318 -2.45682e-20)
(1.34954 0.10332 2.4675e-20)
(1.33804 0.088929 0)
(1.3249 0.0754847 -2.42168e-20)
(1.31029 0.0632591 0)
(1.29414 0.0524947 0)
(1.27619 0.0434602 0)
(1.25587 0.036292 2.13737e-20)
(1.23235 0.0311439 0)
(1.20503 0.0292954 0)
(1.17417 0.0351823 0)
(1.13717 0.0503352 0)
(0.447026 -0.00203389 -3.46082e-20)
(0.686377 0.0382086 4.9714e-20)
(0.898821 0.0916835 -1.96937e-20)
(1.06374 0.136666 2.28456e-21)