/*--------------------------------*- C++ -*----------------------------------*\
  =========                 |
  \\      /  F ield         | OpenFOAM: The Open Source CFD Toolbox
   \\    /   O peration     | Website:  https://openfoam.org
    \\  /    A nd           | Version:  11
     \\/     M anipulation  |
\*---------------------------------------------------------------------------*/
FoamFile
{
    format      ascii;
    class       surfaceScalarField;
    location    "1.88";
    object      meshPhi;
}
// * * * * * * * * * * * * * * * * * * * * * * * * * * * * * * * * * * * * * //

dimensions      [0 3 -1 0 0 0 0];

internalField   nonuniform List<scalar> 
5640
(
1.36939e-16
9.81747e-07
2.42067e-16
1.37445e-06
3.76999e-16
1.76715e-06
-1.33935e-15
2.15984e-06
-3.68167e-15
2.55254e-06
2.94524e-06
5.9512e-15
1.82968e-18
9.81747e-07
-3.88808e-16
1.37445e-06
-2.60417e-15
1.76715e-06
1.94358e-15
2.15984e-06
8.06612e-15
2.55254e-06
2.94524e-06
-9.03e-15
-1.16465e-16
9.81747e-07
1.86333e-16
1.37445e-06
-1.56238e-15
1.76715e-06
-4.21257e-15
2.15984e-06
-7.49859e-15
2.55254e-06
2.94524e-06
7.7222e-16
8.69382e-17
9.81747e-07
-1.01983e-16
1.37445e-06
2.69312e-15
1.76715e-06
7.44271e-15
2.15984e-06
3.25966e-15
2.55254e-06
2.94524e-06
-2.79811e-15
-4.8396e-17
9.81747e-07
3.94678e-17
1.37445e-06
1.94331e-16
1.76715e-06
-1.80617e-15
2.15984e-06
-4.20858e-15
2.55254e-06
2.94524e-06
5.01322e-15
-1.80124e-16
9.81747e-07
4.27104e-18
1.37445e-06
-1.84782e-15
1.76715e-06
-3.88618e-15
2.15984e-06
3.15705e-15
2.55254e-06
2.94524e-06
4.9805e-16
2.5396e-16
9.81747e-07
2.55399e-16
1.37445e-06
2.06588e-15
1.76715e-06
4.50397e-15
2.15984e-06
-2.31001e-15
2.55254e-06
2.94524e-06
5.40942e-16
2.16362e-17
9.81747e-07
-3.21754e-16
1.37445e-06
-1.14894e-15
1.76715e-06
-5.28568e-15
2.15984e-06
-3.76841e-16
2.55254e-06
2.94524e-06
-5.63996e-15
-1.43398e-16
9.81747e-07
1.6636e-16
1.37445e-06
4.19117e-15
1.76715e-06
6.34935e-15
2.15984e-06
-8.05816e-16
2.55254e-06
2.94524e-06
8.39281e-16
-6.88137e-17
9.81747e-07
-9.21279e-17
1.37445e-06
-2.7694e-15
1.76715e-06
-3.68889e-16
2.15984e-06
-1.45085e-15
2.55254e-06
2.94524e-06
-1.76713e-16
1.66325e-16
9.81747e-07
-8.87462e-17
1.37445e-06
5.69619e-16
1.76715e-06
-2.10358e-15
2.15984e-06
9.65985e-15
2.55254e-06
2.94524e-06
5.29001e-15
-1.77811e-16
9.81747e-07
-2.05616e-17
1.37445e-06
-3.45477e-16
1.76715e-06
-4.17266e-15
2.15984e-06
-2.62235e-15
2.55254e-06
2.94524e-06
5.36938e-15
1.7779e-16
9.81747e-07
2.04635e-17
1.37445e-06
3.45379e-16
1.76715e-06
4.1726e-15
2.15984e-06
2.62242e-15
2.55254e-06
2.94524e-06
-5.36967e-15
-1.66348e-16
9.81747e-07
8.86785e-17
1.37445e-06
-5.69745e-16
1.76715e-06
2.10347e-15
2.15984e-06
-9.65999e-15
2.55254e-06
2.94524e-06
-5.29035e-15
6.87885e-17
9.81747e-07
9.2019e-17
1.37445e-06
2.76928e-15
1.76715e-06
3.68751e-16
2.15984e-06
1.45068e-15
2.55254e-06
2.94524e-06
1.76398e-16
1.43369e-16
9.81747e-07
-1.66431e-16
1.37445e-06
-4.19118e-15
1.76715e-06
-6.34939e-15
2.15984e-06
8.05527e-16
2.55254e-06
2.94524e-06
-8.39372e-16
-2.16578e-17
9.81747e-07
3.21686e-16
1.37445e-06
1.14888e-15
1.76715e-06
5.28559e-15
2.15984e-06
3.7672e-16
2.55254e-06
2.94524e-06
5.63966e-15
-2.5398e-16
9.81747e-07
-2.55435e-16
1.37445e-06
-2.06597e-15
1.76715e-06
-4.50418e-15
2.15984e-06
2.30997e-15
2.55254e-06
2.94524e-06
-5.40848e-16
1.80066e-16
9.81747e-07
-4.35656e-18
1.37445e-06
1.84772e-15
1.76715e-06
3.88615e-15
2.15984e-06
-3.15717e-15
2.55254e-06
2.94524e-06
-4.98263e-16
4.8327e-17
9.81747e-07
-3.95502e-17
1.37445e-06
-1.94386e-16
1.76715e-06
1.80598e-15
2.15984e-06
4.20835e-15
2.55254e-06
2.94524e-06
-5.0135e-15
-8.69747e-17
9.81747e-07
1.01913e-16
1.37445e-06
-2.6932e-15
1.76715e-06
-7.44291e-15
2.15984e-06
-3.25991e-15
2.55254e-06
2.94524e-06
2.79794e-15
1.16444e-16
9.81747e-07
-1.86428e-16
1.37445e-06
1.56232e-15
1.76715e-06
4.21254e-15
2.15984e-06
7.49838e-15
2.55254e-06
2.94524e-06
-7.72401e-16
-1.83079e-18
9.81747e-07
3.88772e-16
1.37445e-06
2.60415e-15
1.76715e-06
-1.94373e-15
2.15984e-06
-8.06629e-15
2.55254e-06
2.94524e-06
9.02981e-15
-1.36944e-16
-2.4212e-16
-3.77086e-16
1.33925e-15
3.68149e-15
-5.95154e-15
-1.13363e-14
4.53785e-06
-4.53785e-06
-4.81295e-16
5.23599e-06
-5.23599e-06
-5.35739e-15
5.93412e-06
-5.93412e-06
-1.13035e-14
6.63225e-06
-6.63225e-06
4.86882e-15
7.33038e-06
-7.33038e-06
-1.10987e-15
8.02851e-06
-8.02851e-06
-8.1584e-15
8.72664e-06
-8.72664e-06
1.30436e-14
9.42478e-06
-9.42478e-06
5.94941e-15
1.01229e-05
-1.01229e-05
-1.9976e-15
1.0821e-05
-1.0821e-05
2.43856e-14
1.15192e-05
-1.15192e-05
1.61887e-14
1.22173e-05
-1.22173e-05
-3.27881e-14
1.29154e-05
-1.29154e-05
-3.05179e-15
1.36136e-05
-1.36136e-05
-1.44423e-14
1.43117e-05
-1.43117e-05
-2.69029e-14
1.50098e-05
-1.50098e-05
7.73689e-15
1.5708e-05
-1.5708e-05
-4.4395e-15
1.64061e-05
-1.64061e-05
-1.80037e-14
1.71042e-05
-1.71042e-05
2.18208e-14
1.78024e-05
-1.78024e-05
8.21215e-15
1.85005e-05
-1.85005e-05
-6.08249e-15
1.91986e-05
-1.91986e-05
3.8917e-14
1.98967e-05
-1.98967e-05
2.05949e-05
-2.05949e-05
9.39886e-15
4.53785e-06
5.19893e-16
5.23599e-06
7.52831e-15
5.93412e-06
-4.41195e-15
6.63225e-06
3.78287e-15
7.33038e-06
1.3384e-14
8.02851e-06
-2.11049e-15
8.72664e-06
8.52758e-15
9.42478e-06
-1.00272e-14
1.01229e-05
1.86486e-15
1.0821e-05
-2.02039e-14
1.15192e-05
-7.01294e-15
1.22173e-05
7.50981e-15
1.29154e-05
2.36077e-14
1.36136e-05
-2.0435e-15
1.43117e-05
1.48305e-14
1.50098e-05
-1.38808e-14
1.5708e-05
2.38957e-15
1.64061e-05
2.04101e-14
1.71042e-05
-7.02019e-15
1.78024e-05
1.20635e-14
1.85005e-05
-2.59422e-14
1.91986e-05
1.84164e-15
1.98967e-05
2.05949e-05
-8.6762e-15
4.53785e-06
1.22925e-14
5.23599e-06
1.88314e-15
5.93412e-06
8.90184e-15
6.63225e-06
-5.10872e-15
7.33038e-06
-2.19914e-14
8.02851e-06
1.2264e-14
8.72664e-06
-5.37433e-15
9.42478e-06
4.45653e-15
1.01229e-05
-1.43072e-14
1.0821e-05
-7.3265e-15
1.15192e-05
7.04061e-15
1.22173e-05
2.39944e-14
1.29154e-05
-7.55597e-15
1.36136e-05
9.79935e-15
1.43117e-05
-1.62377e-14
1.50098e-05
4.02935e-14
1.5708e-05
1.44418e-14
1.64061e-05
-1.37046e-14
1.71042e-05
-7.8955e-15
1.78024e-05
-3.92543e-14
1.85005e-05
4.27524e-14
1.91986e-05
-8.85412e-15
1.98967e-05
2.05949e-05
5.98564e-15
4.53785e-06
2.18978e-16
5.23599e-06
-6.43564e-15
5.93412e-06
6.06396e-15
6.63225e-06
-2.09303e-15
7.33038e-06
1.61767e-14
8.02851e-06
-1.88304e-14
8.72664e-06
-2.35305e-15
9.42478e-06
9.17101e-15
1.01229e-05
-4.7124e-15
1.0821e-05
2.16265e-14
1.15192e-05
-2.96449e-14
1.22173e-05
-9.29014e-15
1.29154e-05
-1.89079e-14
1.36136e-05
4.46679e-15
1.43117e-05
3.01527e-14
1.50098e-05
-2.62163e-14
1.5708e-05
4.32223e-16
1.64061e-05
-2.11751e-14
1.71042e-05
1.87123e-14
1.78024e-05
-3.92442e-15
1.85005e-05
-2.91572e-14
1.91986e-05
1.52296e-14
1.98967e-05
2.05949e-05
6.71475e-15
4.53785e-06
-7.30656e-15
5.23599e-06
1.11005e-14
5.93412e-06
-4.24161e-15
6.63225e-06
1.51016e-14
7.33038e-06
-5.20937e-15
8.02851e-06
1.70127e-14
8.72664e-06
-3.94176e-15
9.42478e-06
-2.95925e-16
1.01229e-05
6.60985e-15
1.0821e-05
1.37054e-14
1.15192e-05
1.01838e-14
1.22173e-05
1.82167e-14
1.29154e-05
1.43678e-14
1.36136e-05
2.33379e-14
1.43117e-05
-2.53453e-14
1.50098e-05
2.90724e-14
1.5708e-05
-7.82837e-15
1.64061e-05
3.54138e-14
1.71042e-05
-4.51744e-15
1.78024e-05
4.23683e-14
1.85005e-05
-5.89391e-16
1.91986e-05
-8.73088e-15
1.98967e-05
2.05949e-05
-4.63061e-15
4.53785e-06
5.79718e-15
5.23599e-06
-1.61508e-14
5.93412e-06
-5.97455e-15
6.63225e-06
-8.5557e-15
7.33038e-06
4.22387e-15
8.02851e-06
-8.18867e-15
8.72664e-06
6.99885e-15
9.42478e-06
-2.42303e-14
1.01229e-05
-7.77005e-15
1.0821e-05
-2.27638e-14
1.15192e-05
8.34893e-15
1.22173e-05
-7.40578e-15
1.29154e-05
2.82635e-14
1.36136e-05
-4.5712e-14
1.43117e-05
-8.22368e-15
1.50098e-05
-2.82299e-14
1.5708e-05
-2.33971e-15
1.64061e-05
-6.94694e-15
1.71042e-05
2.2147e-14
1.78024e-05
-3.41116e-14
1.85005e-05
-3.74865e-15
1.91986e-05
-3.23472e-14
1.98967e-05
2.05949e-05
-8.92503e-15
4.53785e-06
-2.28903e-15
5.23599e-06
-2.22413e-15
5.93412e-06
6.6159e-15
6.63225e-06
-3.38881e-15
7.33038e-06
-3.90729e-15
8.02851e-06
-6.4193e-15
8.72664e-06
-7.16002e-15
9.42478e-06
6.8096e-15
1.01229e-05
6.98175e-15
1.0821e-05
-9.06553e-15
1.15192e-05
6.75754e-15
1.22173e-05
-2.88909e-14
1.29154e-05
-1.22361e-14
1.36136e-05
4.80319e-15
1.43117e-05
2.50265e-14
1.50098e-05
3.85996e-15
1.5708e-05
3.60479e-15
1.64061e-05
-2.04843e-14
1.71042e-05
-2.17623e-14
1.78024e-05
3.46463e-15
1.85005e-05
2.90311e-14
1.91986e-05
-1.66684e-15
1.98967e-05
2.05949e-05
6.21569e-15
4.53785e-06
-3.87956e-15
5.23599e-06
1.5422e-14
5.93412e-06
-7.06586e-15
6.63225e-06
-2.21088e-15
7.33038e-06
1.42882e-15
8.02851e-06
-5.49454e-15
8.72664e-06
1.32243e-14
9.42478e-06
6.04571e-15
1.01229e-05
-1.74509e-14
1.0821e-05
2.08868e-14
1.15192e-05
-2.14482e-14
1.22173e-05
1.91355e-14
1.29154e-05
-7.3199e-15
1.36136e-05
3.8487e-14
1.43117e-05
-1.29243e-14
1.50098e-05
-1.88129e-15
1.5708e-05
5.71529e-15
1.64061e-05
-7.58547e-15
1.71042e-05
2.76521e-14
1.78024e-05
1.40991e-14
1.85005e-05
-5.31466e-14
1.91986e-05
3.9086e-14
1.98967e-05
2.05949e-05
-1.4989e-15
4.53785e-06
1.08965e-14
5.23599e-06
-6.59986e-15
5.93412e-06
7.26538e-15
6.63225e-06
6.17448e-15
7.33038e-06
2.4888e-15
8.02851e-06
-9.65373e-16
8.72664e-06
-4.36521e-15
9.42478e-06
-8.90171e-15
1.01229e-05
1.38619e-14
1.0821e-05
1.06901e-14
1.15192e-05
6.24833e-15
1.22173e-05
-1.2768e-16
1.29154e-05
-3.44167e-15
1.36136e-05
-1.10481e-14
1.43117e-05
-1.77655e-14
1.50098e-05
1.76803e-14
1.5708e-05
9.95521e-15
1.64061e-05
3.32889e-15
1.71042e-05
-3.29713e-14
1.78024e-05
-1.04223e-14
1.85005e-05
3.00669e-14
1.91986e-05
-5.99974e-14
1.98967e-05
2.05949e-05
5.16992e-15
4.53785e-06
-7.45574e-15
5.23599e-06
-7.57354e-16
5.93412e-06
6.83925e-15
6.63225e-06
-9.97476e-15
7.33038e-06
-1.66524e-15
8.02851e-06
9.21949e-15
8.72664e-06
-1.34593e-14
9.42478e-06
2.32194e-14
1.01229e-05
1.04715e-14
1.0821e-05
-1.72728e-14
1.15192e-05
-3.02942e-15
1.22173e-05
1.13984e-14
1.29154e-05
-1.98175e-14
1.36136e-05
-4.6819e-15
1.43117e-05
5.03049e-14
1.50098e-05
-2.40459e-14
1.5708e-05
-6.66094e-15
1.64061e-05
1.42594e-14
1.71042e-05
1.64805e-15
1.78024e-05
-6.81354e-15
1.85005e-05
1.44403e-14
1.91986e-05
5.07544e-14
1.98967e-05
2.05949e-05
-6.19761e-15
4.53785e-06
2.84471e-17
5.23599e-06
1.15111e-14
5.93412e-06
-2.06265e-14
6.63225e-06
5.36632e-15
7.33038e-06
1.22087e-15
8.02851e-06
-4.65194e-17
8.72664e-06
1.23928e-14
9.42478e-06
-1.32276e-14
1.01229e-05
-1.88944e-14
1.0821e-05
-4.96431e-15
1.15192e-05
-7.15648e-15
1.22173e-05
-1.48874e-14
1.29154e-05
3.53371e-14
1.36136e-05
-2.80648e-18
1.43117e-05
-4.31375e-14
1.50098e-05
1.35611e-14
1.5708e-05
-2.8257e-14
1.64061e-05
2.45285e-15
1.71042e-05
-1.02405e-14
1.78024e-05
2.37983e-14
1.85005e-05
1.38693e-14
1.91986e-05
-4.5565e-14
1.98967e-05
2.05949e-05
-1.90694e-15
4.53785e-06
1.13037e-15
5.23599e-06
-2.16623e-14
5.93412e-06
9.62337e-15
6.63225e-06
1.51366e-14
7.33038e-06
-1.4066e-14
8.02851e-06
8.0932e-15
8.72664e-06
-2.69608e-14
9.42478e-06
-1.96609e-15
1.01229e-05
2.97176e-14
1.0821e-05
-1.17462e-14
1.15192e-05
1.98652e-14
1.22173e-05
-2.74436e-14
1.29154e-05
-2.06172e-14
1.36136e-05
1.60427e-14
1.43117e-05
-4.61354e-15
1.50098e-05
4.68927e-15
1.5708e-05
4.79611e-14
1.64061e-05
-1.3741e-14
1.71042e-05
3.23728e-14
1.78024e-05
-3.51842e-14
1.85005e-05
-2.49082e-14
1.91986e-05
7.19113e-14
1.98967e-05
2.05949e-05
1.90655e-15
4.53785e-06
-1.13082e-15
5.23599e-06
2.16615e-14
5.93412e-06
-9.62475e-15
6.63225e-06
-1.51381e-14
7.33038e-06
1.40648e-14
8.02851e-06
-8.09287e-15
8.72664e-06
2.69588e-14
9.42478e-06
1.96552e-15
1.01229e-05
-2.97172e-14
1.0821e-05
1.17445e-14
1.15192e-05
-1.98669e-14
1.22173e-05
2.7442e-14
1.29154e-05
2.06115e-14
1.36136e-05
-1.60413e-14
1.43117e-05
4.61315e-15
1.50098e-05
-4.69674e-15
1.5708e-05
-4.797e-14
1.64061e-05
1.37359e-14
1.71042e-05
-3.23715e-14
1.78024e-05
3.51884e-14
1.85005e-05
2.49028e-14
1.91986e-05
-7.19195e-14
1.98967e-05
2.05949e-05
6.1975e-15
4.53785e-06
-2.8714e-17
5.23599e-06
-1.1512e-14
5.93412e-06
2.06257e-14
6.63225e-06
-5.3675e-15
7.33038e-06
-1.22196e-15
8.02851e-06
4.72546e-17
8.72664e-06
-1.23946e-14
9.42478e-06
1.3226e-14
1.01229e-05
1.8893e-14
1.0821e-05
4.96361e-15
1.15192e-05
7.1525e-15
1.22173e-05
1.48854e-14
1.29154e-05
-3.53424e-14
1.36136e-05
3.84784e-19
1.43117e-05
4.3137e-14
1.50098e-05
-1.35639e-14
1.5708e-05
2.82527e-14
1.64061e-05
-2.45497e-15
1.71042e-05
1.02422e-14
1.78024e-05
-2.38052e-14
1.85005e-05
-1.38796e-14
1.91986e-05
4.55605e-14
1.98967e-05
2.05949e-05
-5.17012e-15
4.53785e-06
7.45514e-15
5.23599e-06
7.56084e-16
5.93412e-06
-6.84001e-15
6.63225e-06
9.97351e-15
7.33038e-06
1.66352e-15
8.02851e-06
-9.21885e-15
8.72664e-06
1.34587e-14
9.42478e-06
-2.32218e-14
1.01229e-05
-1.04746e-14
1.0821e-05
1.72713e-14
1.15192e-05
3.02434e-15
1.22173e-05
-1.13998e-14
1.29154e-05
1.98136e-14
1.36136e-05
4.67731e-15
1.43117e-05
-5.03058e-14
1.50098e-05
2.4043e-14
1.5708e-05
6.65407e-15
1.64061e-05
-1.42622e-14
1.71042e-05
-1.6519e-15
1.78024e-05
6.80869e-15
1.85005e-05
-1.44478e-14
1.91986e-05
-5.07612e-14
1.98967e-05
2.05949e-05
1.49838e-15
4.53785e-06
-1.08973e-14
5.23599e-06
6.59889e-15
5.93412e-06
-7.26559e-15
6.63225e-06
-6.17538e-15
7.33038e-06
-2.48961e-15
8.02851e-06
9.64919e-16
8.72664e-06
4.36461e-15
9.42478e-06
8.90017e-15
1.01229e-05
-1.38645e-14
1.0821e-05
-1.0691e-14
1.15192e-05
-6.25214e-15
1.22173e-05
1.25192e-16
1.29154e-05
3.43667e-15
1.36136e-05
1.1043e-14
1.43117e-05
1.77665e-14
1.50098e-05
-1.76807e-14
1.5708e-05
-9.95844e-15
1.64061e-05
-3.32862e-15
1.71042e-05
3.29667e-14
1.78024e-05
1.04154e-14
1.85005e-05
-3.00681e-14
1.91986e-05
5.99891e-14
1.98967e-05
2.05949e-05
-6.21596e-15
4.53785e-06
3.87896e-15
5.23599e-06
-1.54224e-14
5.93412e-06
7.06453e-15
6.63225e-06
2.21004e-15
7.33038e-06
-1.42936e-15
8.02851e-06
5.49346e-15
8.72664e-06
-1.32272e-14
9.42478e-06
-6.04603e-15
1.01229e-05
1.74504e-14
1.0821e-05
-2.08853e-14
1.15192e-05
2.14433e-14
1.22173e-05
-1.91364e-14
1.29154e-05
7.3154e-15
1.36136e-05
-3.84884e-14
1.43117e-05
1.29206e-14
1.50098e-05
1.88342e-15
1.5708e-05
-5.71745e-15
1.64061e-05
7.58336e-15
1.71042e-05
-2.76633e-14
1.78024e-05
-1.41008e-14
1.85005e-05
5.3138e-14
1.91986e-05
-3.90892e-14
1.98967e-05
2.05949e-05
8.9248e-15
4.53785e-06
2.28879e-15
5.23599e-06
2.22396e-15
5.93412e-06
-6.61665e-15
6.63225e-06
3.38778e-15
7.33038e-06
3.90733e-15
8.02851e-06
6.41807e-15
8.72664e-06
7.15791e-15
9.42478e-06
-6.81217e-15
1.01229e-05
-6.9845e-15
1.0821e-05
9.06488e-15
1.15192e-05
-6.76075e-15
1.22173e-05
2.88865e-14
1.29154e-05
1.22326e-14
1.36136e-05
-4.80763e-15
1.43117e-05
-2.50275e-14
1.50098e-05
-3.86228e-15
1.5708e-05
-3.60991e-15
1.64061e-05
2.04787e-14
1.71042e-05
2.17574e-14
1.78024e-05
-3.46647e-15
1.85005e-05
-2.90471e-14
1.91986e-05
1.66046e-15
1.98967e-05
2.05949e-05
4.63028e-15
4.53785e-06
-5.79767e-15
5.23599e-06
1.61505e-14
5.93412e-06
5.97435e-15
6.63225e-06
8.55442e-15
7.33038e-06
-4.22448e-15
8.02851e-06
8.18685e-15
8.72664e-06
-6.99998e-15
9.42478e-06
2.42283e-14
1.01229e-05
7.76906e-15
1.0821e-05
2.27631e-14
1.15192e-05
-8.35113e-15
1.22173e-05
7.40178e-15
1.29154e-05
-2.82652e-14
1.36136e-05
4.5708e-14
1.43117e-05
8.21927e-15
1.50098e-05
2.82253e-14
1.5708e-05
2.33847e-15
1.64061e-05
6.94119e-15
1.71042e-05
-2.21535e-14
1.78024e-05
3.41079e-14
1.85005e-05
3.73749e-15
1.91986e-05
3.23468e-14
1.98967e-05
2.05949e-05
-6.71527e-15
4.53785e-06
7.30666e-15
5.23599e-06
-1.11012e-14
5.93412e-06
4.24094e-15
6.63225e-06
-1.51029e-14
7.33038e-06
5.20887e-15
8.02851e-06
-1.70137e-14
8.72664e-06
3.94028e-15
9.42478e-06
2.91797e-16
1.01229e-05
-6.6117e-15
1.0821e-05
-1.37065e-14
1.15192e-05
-1.0185e-14
1.22173e-05
-1.82186e-14
1.29154e-05
-1.437e-14
1.36136e-05
-2.33426e-14
1.43117e-05
2.53404e-14
1.50098e-05
-2.90737e-14
1.5708e-05
7.82538e-15
1.64061e-05
-3.54181e-14
1.71042e-05
4.51151e-15
1.78024e-05
-4.23746e-14
1.85005e-05
5.81968e-16
1.91986e-05
8.72995e-15
1.98967e-05
2.05949e-05
-5.98619e-15
4.53785e-06
-2.1899e-16
5.23599e-06
6.43519e-15
5.93412e-06
-6.06439e-15
6.63225e-06
2.09213e-15
7.33038e-06
-1.61771e-14
8.02851e-06
1.88302e-14
8.72664e-06
2.35066e-15
9.42478e-06
-9.17329e-15
1.01229e-05
4.7095e-15
1.0821e-05
-2.16287e-14
1.15192e-05
2.96441e-14
1.22173e-05
9.28742e-15
1.29154e-05
1.89052e-14
1.36136e-05
-4.46827e-15
1.43117e-05
-3.01579e-14
1.50098e-05
2.62159e-14
1.5708e-05
-4.38404e-16
1.64061e-05
2.11704e-14
1.71042e-05
-1.87162e-14
1.78024e-05
3.91598e-15
1.85005e-05
2.91575e-14
1.91986e-05
-1.5234e-14
1.98967e-05
2.05949e-05
8.67569e-15
4.53785e-06
-1.22928e-14
5.23599e-06
-1.88354e-15
5.93412e-06
-8.90269e-15
6.63225e-06
5.10786e-15
7.33038e-06
2.19896e-14
8.02851e-06
-1.22652e-14
8.72664e-06
5.37393e-15
9.42478e-06
-4.45806e-15
1.01229e-05
1.4304e-14
1.0821e-05
7.32498e-15
1.15192e-05
-7.04219e-15
1.22173e-05
-2.39977e-14
1.29154e-05
7.55438e-15
1.36136e-05
-9.80344e-15
1.43117e-05
1.62341e-14
1.50098e-05
-4.02964e-14
1.5708e-05
-1.44462e-14
1.64061e-05
1.37011e-14
1.71042e-05
7.89202e-15
1.78024e-05
3.92487e-14
1.85005e-05
-4.27514e-14
1.91986e-05
8.84673e-15
1.98967e-05
2.05949e-05
-9.39923e-15
4.53785e-06
-5.20589e-16
5.23599e-06
-7.52871e-15
5.93412e-06
4.41148e-15
6.63225e-06
-3.78386e-15
7.33038e-06
-1.33851e-14
8.02851e-06
2.10938e-15
8.72664e-06
-8.52948e-15
9.42478e-06
1.0027e-14
1.01229e-05
-1.86705e-15
1.0821e-05
2.02017e-14
1.15192e-05
7.01145e-15
1.22173e-05
-7.5125e-15
1.29154e-05
-2.36116e-14
1.36136e-05
2.03966e-15
1.43117e-05
-1.48333e-14
1.50098e-05
1.38787e-14
1.5708e-05
-2.39352e-15
1.64061e-05
-2.04119e-14
1.71042e-05
7.01389e-15
1.78024e-05
-1.20663e-14
1.85005e-05
2.5938e-14
1.91986e-05
-1.85151e-15
1.98967e-05
2.05949e-05
1.13359e-14
4.53785e-06
4.80903e-16
5.23599e-06
5.35699e-15
5.93412e-06
1.1303e-14
6.63225e-06
-4.86953e-15
7.33038e-06
1.10896e-15
8.02851e-06
8.15791e-15
8.72664e-06
-1.30445e-14
9.42478e-06
-5.95002e-15
1.01229e-05
1.99434e-15
1.0821e-05
-2.43877e-14
1.15192e-05
-1.61895e-14
1.22173e-05
3.27856e-14
1.29154e-05
3.05036e-15
1.36136e-05
1.44418e-14
1.43117e-05
2.69006e-14
1.50098e-05
-7.74029e-15
1.5708e-05
4.43586e-15
1.64061e-05
1.7996e-14
1.71042e-05
-2.18225e-14
1.78024e-05
-8.21265e-15
1.85005e-05
6.08135e-15
1.91986e-05
-3.89218e-14
1.98967e-05
2.05949e-05
1.36939e-16
9.81747e-07
2.4206e-16
1.37445e-06
3.76999e-16
1.76715e-06
-1.33935e-15
2.15984e-06
-3.68167e-15
2.55254e-06
2.94524e-06
5.95121e-15
1.82968e-18
9.81747e-07
-3.88808e-16
1.37445e-06
-2.60417e-15
1.76715e-06
1.94358e-15
2.15984e-06
8.06612e-15
2.55254e-06
2.94524e-06
-9.03e-15
-1.16465e-16
9.81747e-07
1.86333e-16
1.37445e-06
-1.56238e-15
1.76715e-06
-4.21257e-15
2.15984e-06
-7.49859e-15
2.55254e-06
2.94524e-06
7.7222e-16
8.69382e-17
9.81747e-07
-1.01983e-16
1.37445e-06
2.69312e-15
1.76715e-06
7.44271e-15
2.15984e-06
3.25966e-15
2.55254e-06
2.94524e-06
-2.79811e-15
-4.8396e-17
9.81747e-07
3.94678e-17
1.37445e-06
1.94331e-16
1.76715e-06
-1.80617e-15
2.15984e-06
-4.20858e-15
2.55254e-06
2.94524e-06
5.01322e-15
-1.80124e-16
9.81747e-07
4.27104e-18
1.37445e-06
-1.84782e-15
1.76715e-06
-3.88618e-15
2.15984e-06
3.15705e-15
2.55254e-06
2.94524e-06
4.9805e-16
2.5396e-16
9.81747e-07
2.55399e-16
1.37445e-06
2.06588e-15
1.76715e-06
4.50397e-15
2.15984e-06
-2.31001e-15
2.55254e-06
2.94524e-06
5.40942e-16
2.16362e-17
9.81747e-07
-3.21754e-16
1.37445e-06
-1.14894e-15
1.76715e-06
-5.28568e-15
2.15984e-06
-3.76841e-16
2.55254e-06
2.94524e-06
-5.63996e-15
-1.43398e-16
9.81747e-07
1.6636e-16
1.37445e-06
4.19117e-15
1.76715e-06
6.34935e-15
2.15984e-06
-8.05816e-16
2.55254e-06
2.94524e-06
8.39281e-16
-6.88137e-17
9.81747e-07
-9.21279e-17
1.37445e-06
-2.7694e-15
1.76715e-06
-3.68889e-16
2.15984e-06
-1.45085e-15
2.55254e-06
2.94524e-06
-1.76713e-16
1.66325e-16
9.81747e-07
-8.87462e-17
1.37445e-06
5.69619e-16
1.76715e-06
-2.10358e-15
2.15984e-06
9.65985e-15
2.55254e-06
2.94524e-06
5.29001e-15
-1.77811e-16
9.81747e-07
-2.05616e-17
1.37445e-06
-3.45477e-16
1.76715e-06
-4.17266e-15
2.15984e-06
-2.62235e-15
2.55254e-06
2.94524e-06
5.36938e-15
1.7779e-16
9.81747e-07
2.04635e-17
1.37445e-06
3.45379e-16
1.76715e-06
4.1726e-15
2.15984e-06
2.62242e-15
2.55254e-06
2.94524e-06
-5.36967e-15
-1.66348e-16
9.81747e-07
8.86785e-17
1.37445e-06
-5.69745e-16
1.76715e-06
2.10347e-15
2.15984e-06
-9.65999e-15
2.55254e-06
2.94524e-06
-5.29035e-15
6.87885e-17
9.81747e-07
9.2019e-17
1.37445e-06
2.76928e-15
1.76715e-06
3.68751e-16
2.15984e-06
1.45068e-15
2.55254e-06
2.94524e-06
1.76398e-16
1.43369e-16
9.81747e-07
-1.66431e-16
1.37445e-06
-4.19118e-15
1.76715e-06
-6.34939e-15
2.15984e-06
8.05527e-16
2.55254e-06
2.94524e-06
-8.39372e-16
-2.16578e-17
9.81747e-07
3.21686e-16
1.37445e-06
1.14888e-15
1.76715e-06
5.28559e-15
2.15984e-06
3.7672e-16
2.55254e-06
2.94524e-06
5.63966e-15
-2.5398e-16
9.81747e-07
-2.55435e-16
1.37445e-06
-2.06597e-15
1.76715e-06
-4.50418e-15
2.15984e-06
2.30997e-15
2.55254e-06
2.94524e-06
-5.40848e-16
1.80066e-16
9.81747e-07
-4.35656e-18
1.37445e-06
1.84772e-15
1.76715e-06
3.88615e-15
2.15984e-06
-3.15717e-15
2.55254e-06
2.94524e-06
-4.98263e-16
4.8327e-17
9.81747e-07
-3.95502e-17
1.37445e-06
-1.94386e-16
1.76715e-06
1.80598e-15
2.15984e-06
4.20835e-15
2.55254e-06
2.94524e-06
-5.0135e-15
-8.69747e-17
9.81747e-07
1.01913e-16
1.37445e-06
-2.6932e-15
1.76715e-06
-7.44291e-15
2.15984e-06
-3.25991e-15
2.55254e-06
2.94524e-06
2.79794e-15
1.16444e-16
9.81747e-07
-1.86428e-16
1.37445e-06
1.56232e-15
1.76715e-06
4.21254e-15
2.15984e-06
7.49838e-15
2.55254e-06
2.94524e-06
-7.72401e-16
-1.83079e-18
9.81747e-07
3.88772e-16
1.37445e-06
2.60415e-15
1.76715e-06
-1.94373e-15
2.15984e-06
-8.06629e-15
2.55254e-06
2.94524e-06
9.02981e-15
-1.36964e-16
-2.42127e-16
-3.77086e-16
1.33921e-15
3.68154e-15
-5.95135e-15
-1.13363e-14
4.53785e-06
-4.81295e-16
5.23599e-06
-5.35739e-15
5.93412e-06
-1.13035e-14
6.63225e-06
4.86882e-15
7.33038e-06
-1.10956e-15
8.02851e-06
-8.15836e-15
8.72664e-06
1.30436e-14
9.42478e-06
5.94941e-15
1.01229e-05
-1.9976e-15
1.0821e-05
2.43856e-14
1.15192e-05
1.61887e-14
1.22173e-05
-3.27881e-14
1.29154e-05
-3.05179e-15
1.36136e-05
-1.44423e-14
1.43117e-05
-2.69029e-14
1.50098e-05
7.73689e-15
1.5708e-05
-4.43822e-15
1.64061e-05
-1.80031e-14
1.71042e-05
2.1819e-14
1.78024e-05
8.2132e-15
1.85005e-05
-6.08249e-15
1.91986e-05
3.8917e-14
1.98967e-05
2.05949e-05
9.39886e-15
4.53785e-06
5.19893e-16
5.23599e-06
7.52831e-15
5.93412e-06
-4.41195e-15
6.63225e-06
3.78287e-15
7.33038e-06
1.3384e-14
8.02851e-06
-2.11049e-15
8.72664e-06
8.52758e-15
9.42478e-06
-1.00272e-14
1.01229e-05
1.86486e-15
1.0821e-05
-2.02039e-14
1.15192e-05
-7.01294e-15
1.22173e-05
7.50981e-15
1.29154e-05
2.36077e-14
1.36136e-05
-2.0435e-15
1.43117e-05
1.48305e-14
1.50098e-05
-1.38808e-14
1.5708e-05
2.38957e-15
1.64061e-05
2.04101e-14
1.71042e-05
-7.02019e-15
1.78024e-05
1.20635e-14
1.85005e-05
-2.59422e-14
1.91986e-05
1.84164e-15
1.98967e-05
2.05949e-05
-8.6762e-15
4.53785e-06
1.22925e-14
5.23599e-06
1.88314e-15
5.93412e-06
8.90184e-15
6.63225e-06
-5.10872e-15
7.33038e-06
-2.19914e-14
8.02851e-06
1.2264e-14
8.72664e-06
-5.37433e-15
9.42478e-06
4.45653e-15
1.01229e-05
-1.43072e-14
1.0821e-05
-7.3265e-15
1.15192e-05
7.04061e-15
1.22173e-05
2.39944e-14
1.29154e-05
-7.55597e-15
1.36136e-05
9.79935e-15
1.43117e-05
-1.62377e-14
1.50098e-05
4.02935e-14
1.5708e-05
1.44418e-14
1.64061e-05
-1.37046e-14
1.71042e-05
-7.8955e-15
1.78024e-05
-3.92543e-14
1.85005e-05
4.27524e-14
1.91986e-05
-8.85412e-15
1.98967e-05
2.05949e-05
5.98564e-15
4.53785e-06
2.18978e-16
5.23599e-06
-6.43564e-15
5.93412e-06
6.06396e-15
6.63225e-06
-2.09303e-15
7.33038e-06
1.61767e-14
8.02851e-06
-1.88304e-14
8.72664e-06
-2.35305e-15
9.42478e-06
9.17101e-15
1.01229e-05
-4.7124e-15
1.0821e-05
2.16265e-14
1.15192e-05
-2.96449e-14
1.22173e-05
-9.29014e-15
1.29154e-05
-1.89079e-14
1.36136e-05
4.46679e-15
1.43117e-05
3.01527e-14
1.50098e-05
-2.62163e-14
1.5708e-05
4.32223e-16
1.64061e-05
-2.11751e-14
1.71042e-05
1.87123e-14
1.78024e-05
-3.92442e-15
1.85005e-05
-2.91572e-14
1.91986e-05
1.52296e-14
1.98967e-05
2.05949e-05
6.71475e-15
4.53785e-06
-7.30656e-15
5.23599e-06
1.11005e-14
5.93412e-06
-4.24161e-15
6.63225e-06
1.51016e-14
7.33038e-06
-5.20937e-15
8.02851e-06
1.70127e-14
8.72664e-06
-3.94176e-15
9.42478e-06
-2.95925e-16
1.01229e-05
6.60985e-15
1.0821e-05
1.37054e-14
1.15192e-05
1.01838e-14
1.22173e-05
1.82167e-14
1.29154e-05
1.43678e-14
1.36136e-05
2.33379e-14
1.43117e-05
-2.53453e-14
1.50098e-05
2.90724e-14
1.5708e-05
-7.82837e-15
1.64061e-05
3.54138e-14
1.71042e-05
-4.51744e-15
1.78024e-05
4.23683e-14
1.85005e-05
-5.89391e-16
1.91986e-05
-8.73088e-15
1.98967e-05
2.05949e-05
-4.63061e-15
4.53785e-06
5.79718e-15
5.23599e-06
-1.61508e-14
5.93412e-06
-5.97455e-15
6.63225e-06
-8.5557e-15
7.33038e-06
4.22387e-15
8.02851e-06
-8.18867e-15
8.72664e-06
6.99885e-15
9.42478e-06
-2.42303e-14
1.01229e-05
-7.77005e-15
1.0821e-05
-2.27638e-14
1.15192e-05
8.34893e-15
1.22173e-05
-7.40578e-15
1.29154e-05
2.82635e-14
1.36136e-05
-4.5712e-14
1.43117e-05
-8.22368e-15
1.50098e-05
-2.82299e-14
1.5708e-05
-2.33971e-15
1.64061e-05
-6.94694e-15
1.71042e-05
2.2147e-14
1.78024e-05
-3.41116e-14
1.85005e-05
-3.74865e-15
1.91986e-05
-3.23472e-14
1.98967e-05
2.05949e-05
-8.92503e-15
4.53785e-06
-2.28903e-15
5.23599e-06
-2.22413e-15
5.93412e-06
6.6159e-15
6.63225e-06
-3.38881e-15
7.33038e-06
-3.90729e-15
8.02851e-06
-6.4193e-15
8.72664e-06
-7.16002e-15
9.42478e-06
6.8096e-15
1.01229e-05
6.98175e-15
1.0821e-05
-9.06553e-15
1.15192e-05
6.75754e-15
1.22173e-05
-2.88909e-14
1.29154e-05
-1.22361e-14
1.36136e-05
4.80319e-15
1.43117e-05
2.50265e-14
1.50098e-05
3.85996e-15
1.5708e-05
3.60479e-15
1.64061e-05
-2.04843e-14
1.71042e-05
-2.17623e-14
1.78024e-05
3.46463e-15
1.85005e-05
2.90311e-14
1.91986e-05
-1.66684e-15
1.98967e-05
2.05949e-05
6.21569e-15
4.53785e-06
-3.87956e-15
5.23599e-06
1.5422e-14
5.93412e-06
-7.06586e-15
6.63225e-06
-2.21088e-15
7.33038e-06
1.42882e-15
8.02851e-06
-5.49454e-15
8.72664e-06
1.32243e-14
9.42478e-06
6.04571e-15
1.01229e-05
-1.74509e-14
1.0821e-05
2.08868e-14
1.15192e-05
-2.14482e-14
1.22173e-05
1.91355e-14
1.29154e-05
-7.3199e-15
1.36136e-05
3.8487e-14
1.43117e-05
-1.29243e-14
1.50098e-05
-1.88129e-15
1.5708e-05
5.71529e-15
1.64061e-05
-7.58547e-15
1.71042e-05
2.76521e-14
1.78024e-05
1.40991e-14
1.85005e-05
-5.31466e-14
1.91986e-05
3.9086e-14
1.98967e-05
2.05949e-05
-1.4989e-15
4.53785e-06
1.08965e-14
5.23599e-06
-6.59986e-15
5.93412e-06
7.26538e-15
6.63225e-06
6.17448e-15
7.33038e-06
2.4888e-15
8.02851e-06
-9.65373e-16
8.72664e-06
-4.36521e-15
9.42478e-06
-8.90171e-15
1.01229e-05
1.38619e-14
1.0821e-05
1.06901e-14
1.15192e-05
6.24833e-15
1.22173e-05
-1.2768e-16
1.29154e-05
-3.44167e-15
1.36136e-05
-1.10481e-14
1.43117e-05
-1.77655e-14
1.50098e-05
1.76803e-14
1.5708e-05
9.95521e-15
1.64061e-05
3.32889e-15
1.71042e-05
-3.29713e-14
1.78024e-05
-1.04223e-14
1.85005e-05
3.00669e-14
1.91986e-05
-5.99974e-14
1.98967e-05
2.05949e-05
5.16992e-15
4.53785e-06
-7.45574e-15
5.23599e-06
-7.57354e-16
5.93412e-06
6.83925e-15
6.63225e-06
-9.97476e-15
7.33038e-06
-1.66524e-15
8.02851e-06
9.21949e-15
8.72664e-06
-1.34593e-14
9.42478e-06
2.32194e-14
1.01229e-05
1.04715e-14
1.0821e-05
-1.72728e-14
1.15192e-05
-3.02942e-15
1.22173e-05
1.13984e-14
1.29154e-05
-1.98175e-14
1.36136e-05
-4.6819e-15
1.43117e-05
5.03049e-14
1.50098e-05
-2.40459e-14
1.5708e-05
-6.66094e-15
1.64061e-05
1.42594e-14
1.71042e-05
1.64805e-15
1.78024e-05
-6.81354e-15
1.85005e-05
1.44403e-14
1.91986e-05
5.07544e-14
1.98967e-05
2.05949e-05
-6.19761e-15
4.53785e-06
2.84471e-17
5.23599e-06
1.15111e-14
5.93412e-06
-2.06265e-14
6.63225e-06
5.36632e-15
7.33038e-06
1.22087e-15
8.02851e-06
-4.65194e-17
8.72664e-06
1.23928e-14
9.42478e-06
-1.32276e-14
1.01229e-05
-1.88944e-14
1.0821e-05
-4.96431e-15
1.15192e-05
-7.15648e-15
1.22173e-05
-1.48874e-14
1.29154e-05
3.53371e-14
1.36136e-05
-2.80648e-18
1.43117e-05
-4.31375e-14
1.50098e-05
1.35611e-14
1.5708e-05
-2.8257e-14
1.64061e-05
2.45285e-15
1.71042e-05
-1.02405e-14
1.78024e-05
2.37983e-14
1.85005e-05
1.38693e-14
1.91986e-05
-4.5565e-14
1.98967e-05
2.05949e-05
-1.90694e-15
4.53785e-06
1.13037e-15
5.23599e-06
-2.16623e-14
5.93412e-06
9.62337e-15
6.63225e-06
1.51366e-14
7.33038e-06
-1.4066e-14
8.02851e-06
8.0932e-15
8.72664e-06
-2.69608e-14
9.42478e-06
-1.96609e-15
1.01229e-05
2.97176e-14
1.0821e-05
-1.17462e-14
1.15192e-05
1.98652e-14
1.22173e-05
-2.74436e-14
1.29154e-05
-2.06172e-14
1.36136e-05
1.60427e-14
1.43117e-05
-4.61354e-15
1.50098e-05
4.68927e-15
1.5708e-05
4.79611e-14
1.64061e-05
-1.3741e-14
1.71042e-05
3.23728e-14
1.78024e-05
-3.51842e-14
1.85005e-05
-2.49082e-14
1.91986e-05
7.19113e-14
1.98967e-05
2.05949e-05
1.90655e-15
4.53785e-06
-1.13082e-15
5.23599e-06
2.16615e-14
5.93412e-06
-9.62475e-15
6.63225e-06
-1.51381e-14
7.33038e-06
1.40648e-14
8.02851e-06
-8.09287e-15
8.72664e-06
2.69588e-14
9.42478e-06
1.96552e-15
1.01229e-05
-2.97172e-14
1.0821e-05
1.17445e-14
1.15192e-05
-1.98669e-14
1.22173e-05
2.7442e-14
1.29154e-05
2.06115e-14
1.36136e-05
-1.60413e-14
1.43117e-05
4.61315e-15
1.50098e-05
-4.69674e-15
1.5708e-05
-4.797e-14
1.64061e-05
1.37359e-14
1.71042e-05
-3.23715e-14
1.78024e-05
3.51884e-14
1.85005e-05
2.49028e-14
1.91986e-05
-7.19195e-14
1.98967e-05
2.05949e-05
6.1975e-15
4.53785e-06
-2.8714e-17
5.23599e-06
-1.1512e-14
5.93412e-06
2.06257e-14
6.63225e-06
-5.3675e-15
7.33038e-06
-1.22196e-15
8.02851e-06
4.72546e-17
8.72664e-06
-1.23946e-14
9.42478e-06
1.3226e-14
1.01229e-05
1.8893e-14
1.0821e-05
4.96361e-15
1.15192e-05
7.1525e-15
1.22173e-05
1.48854e-14
1.29154e-05
-3.53424e-14
1.36136e-05
3.84784e-19
1.43117e-05
4.3137e-14
1.50098e-05
-1.35639e-14
1.5708e-05
2.82527e-14
1.64061e-05
-2.45497e-15
1.71042e-05
1.02422e-14
1.78024e-05
-2.38052e-14
1.85005e-05
-1.38796e-14
1.91986e-05
4.55605e-14
1.98967e-05
2.05949e-05
-5.17012e-15
4.53785e-06
7.45514e-15
5.23599e-06
7.56084e-16
5.93412e-06
-6.84001e-15
6.63225e-06
9.97351e-15
7.33038e-06
1.66352e-15
8.02851e-06
-9.21885e-15
8.72664e-06
1.34587e-14
9.42478e-06
-2.32218e-14
1.01229e-05
-1.04746e-14
1.0821e-05
1.72713e-14
1.15192e-05
3.02434e-15
1.22173e-05
-1.13998e-14
1.29154e-05
1.98136e-14
1.36136e-05
4.67731e-15
1.43117e-05
-5.03058e-14
1.50098e-05
2.4043e-14
1.5708e-05
6.65407e-15
1.64061e-05