/*--------------------------------*- C++ -*----------------------------------*\
  =========                 |
  \\      /  F ield         | OpenFOAM: The Open Source CFD Toolbox
   \\    /   O peration     | Website:  https://openfoam.org
    \\  /    A nd           | Version:  11
     \\/     M anipulation  |
\*---------------------------------------------------------------------------*/
FoamFile
{
    format      ascii;
    class       volScalarField;
    location    "1.88";
    object      p;
}
// * * * * * * * * * * * * * * * * * * * * * * * * * * * * * * * * * * * * * //

dimensions      [0 2 -2 0 0 0 0];

internalField   nonuniform List<scalar> 
2880
(
1.21221
1.22221
1.24292
1.28789
1.30205
1.42743
1.21296
1.22247
1.23976
1.27409
1.25643
1.29699
1.21353
1.22244
1.23522
1.2588
1.2301
1.22022
1.21349
1.22158
1.22994
1.24373
1.20936
1.17903
1.213
1.22015
1.22447
1.23001
1.19341
1.1566
1.21217
1.21837
1.21907
1.2179
1.18229
1.14059
1.21102
1.21628
1.21381
1.20745
1.17332
1.13128
1.20959
1.21387
1.20872
1.1984
1.16571
1.12557
1.20794
1.21121
1.20383
1.19049
1.159
1.12113
1.20617
1.20844
1.19923
1.18351
1.15283
1.11681
1.20435
1.20568
1.195
1.17733
1.1469
1.11201
1.20259
1.20305
1.19122
1.17189
1.14106
1.10637
1.20094
1.20071
1.18798
1.16715
1.13522
1.0997
1.19944
1.19872
1.18533
1.16314
1.12937
1.09193
1.19813
1.19713
1.18327
1.15992
1.12356
1.08306
1.19701
1.19592
1.1818
1.15759
1.11791
1.07326
1.19607
1.19501
1.18091
1.15631
1.11268
1.06298
1.1953
1.19435
1.18061
1.15628
1.10832
1.05316
1.19467
1.1939
1.18093
1.15789
1.10562
1.04518
1.19415
1.19366
1.18205
1.16162
1.10534
1.03939
1.19375
1.1937
1.18417
1.16807
1.10849
1.0391
1.19355
1.19405
1.18741
1.1774
1.11872
1.05558
1.19363
1.1945
1.1911
1.18805
1.14379
1.1061
1.19386
1.1947
1.19336
1.19762
1.17661
1.19647
0.494052
0.570495
0.547677
0.557237
0.55756
0.55063
0.539116
0.525981
0.513296
0.50217
0.492886
0.48521
0.478851
0.473648
0.469477
0.4662
0.463655
0.461674
0.459976
0.45809
0.456302
0.458344
0.469074
0.467055
0.694446
0.690476
0.6403
0.627687
0.614086
0.597491
0.578867
0.560405
0.543727
0.529596
0.517998
0.5085
0.500702
0.494372
0.48933
0.485385
0.482329
0.47995
0.477954
0.47591
0.474087
0.475737
0.484943
0.483152
0.82358
0.779459
0.718575
0.690209
0.665321
0.640408
0.615489
0.592239
0.571943
0.555072
0.541346
0.530156
0.521017
0.513639
0.507791
0.503234
0.499711
0.496967
0.494702
0.492528
0.490701
0.491988
0.499691
0.498025
0.900884
0.845616
0.781927
0.743448
0.710146
0.678515
0.648305
0.620945
0.597502
0.578222
0.5626
0.549886
0.539534
0.531209
0.524636
0.51953
0.515587
0.512513
0.510003
0.507719
0.505913
0.506892
0.513087
0.511223
0.954065
0.896133
0.832245
0.787517
0.748222
0.711393
0.676911
0.646158
0.620077
0.598747
0.581487
0.56744
0.556023
0.546866
0.539657
0.534069
0.529752
0.526378
0.523638
0.521244
0.519441
0.520083
0.524817
0.522867
0.993323
0.934389
0.871493
0.823077
0.779657
0.738933
0.701121
0.667662
0.639444
0.616427
0.597795
0.582617
0.570292
0.560425
0.552675
0.546675
0.542031
0.538386
0.535431
0.532928
0.531089
0.531332
0.534716
0.532962
1.02029
0.962547
0.901381
0.85094
0.804771
0.761219
0.720894
0.685352
0.655466
0.631106
0.611361
0.595255
0.582184
0.571735
0.563541
0.557199
0.552279
0.548396
0.545254
0.542652
0.540751
0.540565
0.542786
0.541512
1.03803
0.98247
0.923298
0.871891
0.82397
0.778435
0.736282
0.699199
0.668064
0.642681
0.622068
0.605236
0.591579
0.580674
0.572132
0.565519
0.560375
0.556298
0.553002
0.550326
0.548374
0.547818
0.549076
0.548221
1.04893
0.99563
0.938349
0.886621
0.837659
0.790802
0.747386
0.709224
0.677207
0.65109
0.62984
0.612472
0.598384
0.587146
0.578348
0.571534
0.566219
0.56199
0.558576
0.555846
0.553861
0.553013
0.553505
0.552977
1.05441
1.00306
0.94737
0.895692
0.846192
0.798531
0.754316
0.715469
0.682895
0.656303
0.634629
0.616907
0.602535
0.591078
0.582112
0.575161
0.569726
0.565388
0.561891
0.559125
0.557117
0.556055
0.555991
0.555709
1.05534
1.00543
0.950947
0.899521
0.849848
0.801796
0.757171
0.71798
0.685131
0.658296
0.636399
0.618491
0.603975
0.59241
0.583361
0.576339
0.570836
0.566435
0.56289
0.560106
0.558086
0.556889
0.556484
0.55637
1.05217
1.00314
0.949439
0.898373
0.84881
0.800714
0.756018
0.716781
0.683911
0.657051
0.635125
0.617197
0.602675
0.591111
0.582062
0.575033
0.569516
0.565099
0.561542
0.558757
0.556733
0.555482
0.554961
0.554928
1.04506
0.996333
0.942986
0.892358
0.843157
0.795336
0.750887
0.711887
0.679241
0.652574
0.630813
0.613032
0.598638
0.58718
0.578216
0.571249
0.565771
0.56138
0.557845
0.555073
0.553054
0.551831
0.551416
0.55138
1.03387
0.984904
0.931521
0.881435
0.832864
0.785652
0.741774
0.703306
0.671135
0.644882
0.62348
0.606008
0.591877
0.58064
0.571847
0.565002
0.559614
0.555295
0.551816
0.549074
0.547067
0.545951
0.545861
0.545738
1.01817
0.968516
0.91476
0.865402
0.817797
0.771574
0.728628
0.691008
0.659579
0.633969
0.613127
0.596138
0.582418
0.571513
0.562976
0.556323
0.551083
0.546885
0.543499
0.540804
0.538818
0.537885
0.538324
0.538034
0.997166
0.946551
0.892191
0.843898
0.797714
0.752946
0.711352
0.674936
0.644545
0.619831
0.599769
0.583452
0.570294
0.559843
0.551659
0.545277
0.540248
0.536221
0.532965
0.530335
0.528382
0.527698
0.528855
0.528323
0.969575
0.918059
0.863046
0.816399
0.772269
0.729553
0.68982
0.655032
0.626024
0.602492
0.583455
0.56801
0.555577
0.54571
0.537983
0.531953
0.527201
0.523399
0.520312
0.517769
0.515857
0.515483
0.517521
0.516683
0.933301
0.881662
0.826268
0.782217
0.741033
0.70114
0.6639
0.631248
0.604029
0.582007
0.56426
0.549901
0.538364
0.529219
0.522058
0.516469
0.512064
0.50854
0.505663
0.50323
0.501374
0.501358
0.504413
0.503226
0.885283
0.83552
0.780459
0.740509
0.703516
0.667446
0.633472
0.603556
0.578599
0.558453
0.542285
0.52924
0.51878
0.5105
0.504022
0.498965
0.49498
0.491791
0.489167
0.486872
0.485087
0.485469
0.48965
0.488074
0.82255
0.777511
0.723871
0.690311
0.659221
0.628242
0.598466
0.571981
0.549817
0.531953
0.517669
0.506177
0.496982
0.489716
0.484039
0.479609
0.476118
0.473323
0.470995
0.468869
0.467179
0.467998
0.473394
0.471369
0.739075
0.705155
0.654402
0.630613
0.607735
0.583409
0.558914
0.536641
0.517846
0.502692
0.490605
0.480909
0.473167
0.467063
0.462303
0.458594
0.455671
0.453328
0.451343
0.449423
0.447854
0.449143
0.455826
0.453284
0.620653
0.61333
0.569432
0.560547
0.548875
0.533031
0.515016
0.497789
0.482955
0.470935
0.461356
0.453687
0.447577
0.442774
0.439041
0.436138
0.43385
0.432009
0.430405
0.428719
0.427271
0.428986
0.436999
0.434175
0.435575
0.485155
0.46595
0.479804
0.482928
0.477535
0.467221
0.455855
0.445543
0.437048
0.430258
0.424825
0.420502
0.417119
0.414508
0.412485
0.41089
0.409593
0.408402
0.406972
0.405639
0.407722
0.417035
0.414137
0.139983
0.32639
0.345221
0.389618
0.411062
0.417885
0.416313
0.411485
0.406155
0.401502
0.397726
0.394688
0.392275
0.390408
0.388993
0.387912
0.387056
0.386339
0.38559
0.384441
0.383236
0.385654
0.396205
0.393332
-0.711967
-0.770606
-0.850047
-0.894788
-0.927171
-1.07973
-0.721332
-0.779742
-0.855473
-0.900614
-0.912663
-1.01137
-0.73057
-0.788576
-0.861545
-0.909296
-0.907739
-0.980495
-0.739929
-0.797688
-0.86836
-0.918269
-0.909863
-0.95688
-0.749988
-0.806797
-0.875831
-0.924565
-0.913517
-0.93392
-0.759427
-0.815746
-0.882307
-0.927252
-0.914475
-0.912809
-0.767355
-0.823769
-0.886052
-0.926296
-0.913537
-0.890173
-0.773614
-0.829295
-0.886403
-0.921391
-0.907255
-0.867969
-0.777651
-0.831676
-0.883278
-0.912348
-0.895016
-0.845118
-0.779079
-0.830697
-0.876775
-0.899237
-0.877533
-0.820163
-0.777678
-0.826371
-0.867119
-0.882407
-0.855548
-0.792733
-0.773361
-0.818887
-0.854684
-0.862271
-0.829846
-0.763004
-0.766159
-0.808533
-0.839711
-0.839515
-0.801221
-0.731292
-0.756214
-0.796104
-0.822634
-0.814728
-0.770415
-0.697629
-0.744044
-0.782013
-0.803876
-0.788477
-0.73813
-0.662667
-0.730311
-0.766676
-0.783842
-0.761288
-0.705
-0.627281
-0.715775
-0.750577
-0.762918
-0.733608
-0.671585
-0.592043
-0.701234
-0.734247
-0.741471
-0.705739
-0.638286
-0.55749
-0.687441
-0.718301
-0.719854
-0.677811
-0.605081
-0.523727
-0.67501
-0.703651
-0.698515
-0.649919
-0.571575
-0.489887
-0.66458
-0.691797
-0.678315
-0.622346
-0.537051
-0.453521
-0.657658
-0.683858
-0.660779
-0.594985
-0.499513
-0.408746
-0.655814
-0.678395
-0.64644
-0.565098
-0.454632
-0.348369
-0.657666
-0.669316
-0.625778
-0.527431
-0.400757
-0.282796
-0.321435
0.128703
0.213397
0.294228
0.33579
0.355718
0.363459
0.365557
0.36548
0.364862
0.364237
0.363695
0.363267
0.362977
0.362809
0.362712
0.36263
0.362523
0.362241
0.361402
0.360349
0.363077
0.374776
0.371988
-0.524597
-0.0652152
0.0891368
0.201166
0.260781
0.293209
0.310112
0.319115
0.32431
0.327759
0.330314
0.332291
0.33387
0.33518
0.336284
0.337195
0.33791
0.338431
0.338637
0.338136
0.337267
0.340292
0.353019
0.350361
-0.593124
-0.206021
-0.0143156
0.116361
0.189528
0.232569
0.257765
0.273226
0.283455
0.290833
0.296485
0.300928
0.304484
0.307378
0.30975
0.311672
0.313194
0.314356
0.315066
0.314931
0.314283
0.317594
0.331209
0.328723
-0.634031
-0.301531
-0.0976574
0.0419455
0.124248
0.175501
0.207671
0.228843
0.243657
0.254686
0.263251
0.270038
0.275489
0.279918
0.283529
0.28645
0.288776
0.290584
0.29181
0.292069
0.291682
0.295268
0.309615
0.30736
-0.666425
-0.369358
-0.165035
-0.022437
0.0657427
0.122997
0.160722
0.18671
0.205532
0.219832
0.231054
0.240009
0.247237
0.253123
0.257926
0.26182
0.264938
0.267392
0.269143
0.26982
0.269734
0.273581
0.288492
0.28657
-0.687108
-0.418281
-0.21921
-0.0774915
0.0141282
0.0755199
0.117471
0.147351
0.169548
0.186684
0.200259
0.211171
0.220032
0.227278
0.233213
0.238046
0.241943
0.245041
0.247326
0.248445
0.248694
0.252777
0.268076
0.26666
-0.695378
-0.45216
-0.261785
-0.123623
-0.0307039
0.0332161
0.0782031
0.111094
0.13603
0.155545
0.171148
0.183788
0.194122
0.202623
0.209626
0.215366
0.22003
0.223774
0.226606
0.228194
0.228809
0.233079
0.248572
0.247956
-0.694231
-0.473713
-0.294093
-0.161334
-0.0690175
-0.00394778
0.0430282
0.0781179
0.105179
0.126617
0.143918
0.158048
0.169692
0.179341
0.187351
0.193973
0.199406
0.203814
0.207222
0.209318
0.210324
0.21469
0.230127
0.230838
-0.68629
-0.485306
-0.317443
-0.191347
-0.101182
-0.036101
0.0119332
0.048484
0.0770913
0.100012
0.118682
0.134065
0.146853
0.157547
0.166511
0.174006
0.180233
0.185357
0.189412
0.192101
0.193544
0.197817
0.21276
0.215833
-0.672943
-0.488914
-0.333032
-0.214438
-0.127613
-0.0634627
-0.0151834
0.0221534
0.0517749
0.0757586
0.0954776
0.111877
0.125642
0.137274
0.147143
0.155515
0.162591
0.168531
0.173382
0.176873
0.178915
0.182711
0.19607
0.203984
-0.655049
-0.485662
-0.342347
-0.231351
-0.148743
-0.0863284
-0.0384973
-0.000965451
0.0291634
0.0538151
0.0742742
0.0914502
0.106013
0.118463
0.129173
0.13842
0.146414
0.153325
0.159238
0.16397
0.167218
0.170575
0.18056
0.198034
-0.632496
-0.477709
-0.346048
-0.242889
-0.164936
-0.105003
-0.0582768
-0.0210841
0.00912737
0.0340881
0.0549898
0.0726972
0.0878583
0.100966
0.112398
0.122443
0.131334
0.139266
0.146351
0.152465
0.157559
0.163877
0.176651
0.181452
-0.6067
-0.465141
-0.344795
-0.249824
-0.176705
-0.119834
-0.0747544
-0.0383652
-0.0084688
0.0164642
0.037521
0.055508
0.0710397
0.08459
0.0965243
0.107123
0.116601
0.125121
0.132713
0.139142
0.144539
0.152116
0.166536
0.159947
-0.578638
-0.448779
-0.33933
-0.252606
-0.184644
-0.131189
-0.0881825
-0.053002
-0.023777
0.000822669
0.021767
0.039791
0.055465
0.0692342
0.0814415
0.0923463
0.102143
0.110963
0.118795
0.125369
0.130939
0.139092
0.154047
0.143824
-0.548804
-0.429407
-0.330308
-0.251668
-0.189269
-0.13946
-0.0988562
-0.0652169
-0.036963
-0.0129601
0.00763642
0.0254817
0.0410951
0.0548876
0.0671772
0.0782033
0.0881448
0.0971252
0.105132
0.111917
0.117793
0.126441
0.14182
0.130845
-0.517655
-0.407687
-0.318353
-0.247591
-0.190936
-0.145015
-0.107077
-0.0752418
-0.0482008
-0.0250108
-0.00495658
0.0125313
0.027917
0.0415753
0.0538001
0.0648146
0.074791
0.0838615
0.0920265
0.0990431
0.105278
0.114408
0.130206
0.119583
-0.485928
-0.384247
-0.304064
-0.240946
-0.190053
-0.148213
-0.113145
-0.0833158
-0.0576732
-0.0354623
-0.0161004
0.000892248
0.0159215
0.0293253
0.0413743
0.0522797
0.0622188
0.0713348
0.0796182
0.0868472
0.0934536
0.10303
0.119213
0.10954
-0.454381
-0.359787
-0.288063
-0.2323
-0.187105
-0.149437
-0.117374
-0.0896898
-0.0655754
-0.0444596
-0.0258939
-0.00949221
0.00508997
0.0181525
0.0299434
0.040666
0.0505092
0.0596086
0.0679421
0.0753492
0.0822963
0.0922286
0.108728
0.100413
-0.423336
-0.334949
-0.271013
-0.222254
-0.182602
-0.149097
-0.120096
-0.0946327
-0.0721205
-0.052165
-0.0344529
-0.0186958
-0.00461442
0.00805123
0.0195259
0.0300092
0.0396909
0.0486909
0.0569977
0.0645165
0.0717144
0.0818624
0.0985512
0.0919121
-0.392089
-0.309963
-0.253511
-0.211425
-0.177077
-0.147629
-0.121665
-0.0984343
-0.0775426
-0.0587621
-0.0419142
-0.0268141
-0.0132512
-0.00100727
0.0101177
0.0203163
0.0297678
0.0385837
0.0467758
0.0542995
0.0616067
0.0717766
0.0884399
0.0837356
-0.358609
-0.284325
-0.235923
-0.200369
-0.171055
-0.145481
-0.122453
-0.101402
-0.0820955
-0.0644532
-0.0484326
-0.033963
-0.0209036
-0.00907568
0.00169243
0.0115775
0.0207428
0.0292982
0.0372773
0.0446723
0.0519141
0.0618523
0.0781567
0.0755726
-0.319991
-0.256642
-0.218205
-0.189461
-0.165012
-0.143102
-0.122845
-0.103855
-0.0860444
-0.0694623
-0.0541787
-0.0402619
-0.0276711
-0.016231
-0.00579644
0.00377507
0.0126229
0.0208591
0.0285382
0.0356741
0.0426615
0.0520568
0.067523
0.0671271
-0.274037
-0.226268
-0.200347
-0.178937
-0.159311
-0.140886
-0.123205
-0.106106
-0.0896559
-0.0740171
-0.0593489
-0.0458946
-0.0336786
-0.0225656
-0.0124021
-0.0031023
0.0054225
0.0133075
0.0206307
0.027416
0.0339877
0.0425166
0.0565239
0.0581705
-0.222931
-0.197022
-0.183916
-0.169594
-0.154467
-0.139238
-0.12387
-0.108442
-0.0931697
-0.0783373
-0.0642295
-0.0510383
-0.0390547
-0.0282237
-0.0181783
-0.00904303
-0.000840194
0.0066859
0.0136326
0.0200387
0.0261299
0.033567
0.0454669
0.048627
-0.162357
-0.155921
-0.158861
-0.163264
-0.171894
-0.178129
-0.164195
-0.157987
-0.162504
-0.16818
-0.177364
-0.18698
-0.167906
-0.160883
-0.166969
-0.173534
-0.183125
-0.19267
-0.170614
-0.163347
-0.170624
-0.177636
-0.187193
-0.196261
-0.17161
-0.164861
-0.173193
-0.180495
-0.189809
-0.198329
-0.17075
-0.166067
-0.175122
-0.182581
-0.191471
-0.199305
-0.168961
-0.167566
-0.176738
-0.184192
-0.192468
-0.199503
-0.16881
-0.169908
-0.178265
-0.185484
-0.192959
-0.199104
-0.169965
-0.172345
-0.179681
-0.186511
-0.193058
-0.198233
-0.171031
-0.17452
-0.180945
-0.187274
-0.192853
-0.196994
-0.171878
-0.176382
-0.182018
-0.187804
-0.19242
-0.195482
-0.172542
-0.177916
-0.18287
-0.188143
-0.191833
-0.19379
-0.173036
-0.179107
-0.183488
-0.188338
-0.191167
-0.192012
-0.173371
-0.179957
-0.183873
-0.188432
-0.190504
-0.190245
-0.173577
-0.180478
-0.184037
-0.188477
-0.18993
-0.18859
-0.173726
-0.180699
-0.184004
-0.188522
-0.18953
-0.187158
-0.173921
-0.180663
-0.183809
-0.188613
-0.189333
-0.18613
-0.174053
-0.180408
-0.183503
-0.188785
-0.189352
-0.185707
-0.172868
-0.179977
-0.183145
-0.18903
-0.18972
-0.186041
-0.170052
-0.179602
-0.182865
-0.1893
-0.190574
-0.18735
-0.169052
-0.179717
-0.182846
-0.189534
-0.191907
-0.189934
-0.170756
-0.180452
-0.183091
-0.189482
-0.193398
-0.194272
-0.173372
-0.181388
-0.183249
-0.18845
-0.193877
-0.201625
-0.174598
-0.181824
-0.18263
-0.185793
-0.19158
-0.213665
-0.17644
-0.178776
-0.173111
-0.163313
-0.151537
-0.13879
-0.125265
-0.11117
-0.0968082
-0.0825556
-0.0687924
-0.0558502
-0.0439508
-0.0331477
-0.0232809
-0.0143074
-0.00625388
0.000985743
0.00757817
0.0135981
0.019239
0.0256142
0.0350137
0.0389648
-0.179277
-0.177642
-0.171696
-0.162844
-0.152283
-0.140681
-0.128184
-0.114864
-0.10094
-0.0868492
-0.0732622
-0.0604527
-0.0484528
-0.0374606
-0.0276446
-0.0189718
-0.011113
-0.00397213
0.00241274
0.00809323
0.0132189
0.0184135
0.0251276
0.0310899
-0.191027
-0.185838
-0.178401
-0.168984
-0.158177
-0.146435
-0.133931
-0.120743
-0.106847
-0.0927226
-0.078975
-0.0657061
-0.0531738
-0.0418209
-0.0317328
-0.0227403
-0.0147936
-0.00798006
-0.00207721
0.00323014
0.00794558
0.0123253
0.0173025
0.0249022
-0.19923
-0.195711
-0.188703
-0.179397
-0.168445
-0.156227
-0.143168
-0.129366
-0.115206
-0.101134
-0.0870683
-0.0729946
-0.0596127
-0.0476456
-0.0371043
-0.0278169
-0.0197253
-0.0125939
-0.00622763
-0.000607216
0.00426978
0.00869338
0.0125479
0.018046
-0.203342
-0.203126
-0.1982
-0.190389
-0.180273
-0.168225
-0.15488
-0.140507
-0.125572
-0.110401
-0.0953192
-0.0808676
-0.067535
-0.0554659
-0.0447191
-0.0352708
-0.027045
-0.0198585
-0.0134885
-0.0076331
-0.00215577
0.00353812
0.00820874
0.0139567
-0.204939
-0.206977
-0.204422
-0.198694
-0.190139
-0.179203
-0.166389
-0.152217
-0.137131
-0.121492
-0.105876
-0.0908158
-0.0766284
-0.0635943
-0.0519612
-0.0417908
-0.0330882
-0.025755
-0.0194258
-0.0136155
-0.00800526
-0.00182013
0.00412308
0.0118049
-0.205023
-0.207924
-0.206949
-0.202931
-0.196054
-0.186643
-0.175119
-0.161974
-0.147595
-0.132381
-0.116918
-0.101756
-0.0871795
-0.0734259
-0.0608761
-0.0496906
-0.0397716
-0.0310891
-0.0235116
-0.0166932
-0.010297
-0.00375578
0.00313604
0.00996814
-0.204056
-0.206884
-0.206545
-0.20355
-0.197986
-0.190049
-0.180042
-0.168329
-0.155232
-0.141131
-0.126517
-0.111795
-0.0972242
-0.0831156
-0.0698979
-0.0577803
-0.046663
-0.0364988
-0.0273517
-0.0191602
-0.0117574
-0.00488795
0.00152905
0.00570093
-0.202293
-0.204484
-0.204071
-0.201473
-0.196752
-0.190036
-0.181525
-0.171457
-0.16006
-0.147603
-0.134428
-0.120804
-0.106978
-0.0932071
-0.0797753
-0.0669263
-0.0547548
-0.0432467
-0.0324169
-0.0223692
-0.0131546
-0.00501996
0.00176772
0.00530189
-0.199913
-0.201097
-0.200123
-0.197447
-0.193175
-0.187422
-0.180335
-0.17207
-0.162754
-0.152499
-0.141526
-0.129977
-0.118033
-0.10578
-0.0933758
-0.0810325
-0.068909
-0.0569512
-0.0448663
-0.0329501
-0.0216018
-0.0103458
0.00256457
0.0133782
-0.197059
-0.19697
-0.195083
-0.191985
-0.187856
-0.182855
-0.177134
-0.170806
-0.163932
-0.156553
-0.148912
-0.140959
-0.132618
-0.123695
-0.114095
-0.103683
-0.0920974
-0.0786472
-0.0639983
-0.0491039
-0.0340344
-0.0176777
0.00279112
0.0210851
-0.193845
-0.19228
-0.189224
-0.185464
-0.181274
-0.176934
-0.172621
-0.168412
-0.164369
-0.16055
-0.156809
-0.152731
-0.147918
-0.142178
-0.135028
-0.12593
-0.114513
-0.101143
-0.0864228
-0.0703766
-0.0533188
-0.0359474
-0.0203203
-0.00873825
-0.190363
-0.187169
-0.182783
-0.17825
-0.173879
-0.169976
-0.166798
-0.16454
-0.163203
-0.162802
-0.16292
-0.163134
-0.162874
-0.161552
-0.158465
-0.152969
-0.144708
-0.133726
-0.119605
-0.102262
-0.0825423
-0.0625254
-0.0463248
-0.0321124
-0.186682
-0.181755
-0.17589
-0.170307
-0.165532
-0.162008
-0.160008
-0.159728
-0.161214
-0.164373
-0.168766
-0.173885
-0.179046
-0.183155
-0.185169
-0.184033
-0.178978
-0.16928
-0.154619
-0.13512
-0.111551
-0.0859415
-0.0615401
-0.0369874
-0.182841
-0.176006
-0.168429
-0.161758
-0.156575
-0.153365
-0.152486
-0.154143
-0.158387
-0.165047
-0.173654
-0.183499
-0.193575
-0.20256
-0.209043
-0.211711
-0.209191
-0.200635
-0.18551
-0.16387
-0.136544
-0.104939
-0.0706597
-0.0328337
-0.178805
-0.169904
-0.16048
-0.152691
-0.147048
-0.144092
-0.144211
-0.147628
-0.15434
-0.16407
-0.176214
-0.189826
-0.203614
-0.216029
-0.225392
-0.23004
-0.228725
-0.220292
-0.204118
-0.180441
-0.150016
-0.113791
-0.0729267
-0.0271726
-0.174557
-0.163442
-0.152046
-0.143034
-0.136848
-0.134039
-0.134982
-0.139844
-0.148515
-0.160539
-0.175097
-0.19101
-0.206701
-0.220482
-0.230606
-0.235381
-0.233305
-0.223421
-0.20553
-0.17999
-0.147541
-0.10921
-0.0668079
-0.0209113
-0.170046
-0.156553
-0.143049
-0.13274
-0.125926
-0.123118
-0.124627
-0.130505
-0.140459
-0.153795
-0.16942
-0.186018
-0.201892
-0.215217
-0.224109
-0.226953
-0.222667
-0.210735
-0.191103
-0.164367
-0.1317
-0.0944846
-0.0551387
-0.0142242
-0.165191
-0.149209
-0.133526
-0.121903
-0.114397
-0.111436
-0.11322
-0.119622
-0.130102
-0.143722
-0.159327
-0.175302
-0.189744
-0.200806
-0.206971
-0.207013
-0.200086
-0.185972
-0.164985
-0.138241
-0.107394
-0.0740846
-0.0408769
-0.00753424
-0.159894
-0.141471
-0.12368
-0.110823
-0.102617
-0.0993753
-0.101147
-0.107571
-0.117971
-0.131158
-0.145616
-0.159568
-0.171327
-0.17928
-0.18206
-0.17884
-0.16906
-0.153181
-0.131843
-0.106466
-0.0793976
-0.0520236
-0.0253312
-0.000360124
-0.154039
-0.133519
-0.11392
-0.100001
-0.0911612
-0.0875549
-0.0890595
-0.0952325
-0.104956
-0.116728
-0.129014
-0.140229
-0.14862
-0.152764
-0.151622
-0.145159
-0.132947
-0.115255
-0.0956014
-0.0750127
-0.053316
-0.0317675
-0.0112596
0.00732969
-0.147473
-0.125612
-0.104835
-0.0900948
-0.0806822
-0.0766525
-0.0777819
-0.0831849
-0.0914694
-0.101182
-0.110701
-0.118369
-0.122849
-0.123067
-0.118122
-0.107619
-0.0944425
-0.0801305
-0.0638325
-0.0463687
-0.0292961
-0.0132057
0.00274543
0.0161568
-0.140361
-0.118198
-0.0970585
-0.0817065
-0.0717502
-0.0672276
-0.0675927
-0.0716596
-0.0780108
-0.0849894
-0.0910379
-0.0947201
-0.0950941
-0.0909002
-0.0826619
-0.0729405
-0.0615982
-0.0485052
-0.0343893
-0.0206837
-0.00809838
0.00375787
0.0168123
0.0260357
-0.135069
-0.112128
-0.0912204
-0.0752621
-0.0646642
-0.0593442
-0.0584774
-0.0607024
-0.0644459
-0.0681858
-0.0705667
-0.0703032
-0.0660953
-0.0592072
-0.0515546
-0.0423416
-0.0312728
-0.0196442
-0.0084535
0.0017336
0.0108165
0.0198758
0.0315831
0.0372381
-0.232251
-0.236164
-0.224615
-0.200533
-0.161492
-0.102968
-0.227844
-0.234244
-0.224376
-0.205488
-0.175328
-0.136607
-0.219879
-0.231096
-0.223416
-0.209352
-0.188342
-0.163092
-0.219768
-0.229563
-0.223871
-0.214021
-0.198822
-0.179402
-0.227491
-0.230413
-0.226097
-0.219572
-0.20757
-0.190033
-0.232661
-0.232498
-0.229461
-0.225418
-0.215233
-0.198354
-0.234706
-0.234868
-0.233377
-0.231138
-0.222078
-0.205509
-0.236674
-0.237274
-0.237409
-0.236556
-0.228193
-0.211846
-0.239177
-0.239596
-0.241311
-0.24159
-0.233603
-0.217501
-0.241846
-0.241702
-0.244934
-0.246189
-0.238274
-0.222525
-0.24429
-0.243482
-0.248177
-0.250331
-0.242136
-0.226948
-0.246267
-0.244865
-0.250978
-0.254038
-0.245248
-0.230687
-0.247639
-0.24582
-0.253315
-0.257334
-0.247681
-0.233755
-0.248333
-0.246377
-0.255224
-0.260115
-0.249483
-0.236527
-0.248321
-0.2465
-0.256774
-0.262552
-0.250716
-0.239569
-0.24761
-0.24613
-0.25811
-0.26474
-0.251621
-0.243155
-0.246438
-0.245187
-0.259437
-0.266839
-0.252432
-0.245993
-0.244822
-0.244064
-0.260986
-0.269025
-0.253562
-0.251125
-0.24651
-0.24369
-0.262866
-0.271481
-0.255489
-0.260732
-0.252792
-0.244366
-0.26482
-0.274481
-0.259095
-0.277079
-0.25536
-0.244734
-0.266098
-0.27819
-0.265
-0.301326
-0.250405
-0.243522
-0.266114
-0.282238
-0.273771
-0.330665
-0.242591
-0.241042
-0.265433
-0.28533
-0.286907
-0.363657
-0.238829
-0.239399
-0.265729
-0.289225
-0.306729
-0.453475
-0.136872
-0.108545
-0.0877935
-0.0709053
-0.0592987
-0.0527249
-0.0500863
-0.0498924
-0.0505983
-0.0508258
-0.0492285
-0.0450249
-0.0387195
-0.0316829
-0.023562
-0.0139273
-0.0039139
0.00565437
0.0142961
0.0218502
0.0285421
0.0360403
0.0475713
0.0499301
-0.144519
-0.110289
-0.0870617
-0.0684048
-0.0552006
-0.0468246
-0.0419306
-0.0389202
-0.0362845
-0.0328042
-0.0277075
-0.021112
-0.0141015
-0.00625345
0.00262268
0.011675
0.020325
0.0281602
0.0349662
0.0407726
0.0459589
0.0526789
0.0646558
0.0637836
-0.152531
-0.11475
-0.0881314
-0.0670207
-0.0517486
-0.0411428
-0.0336129
-0.0274754
-0.0214772
-0.0146543
-0.00710988
0.000680461
0.00890133
0.0176317
0.0263514
0.0346637
0.0422455
0.0488428
0.0544103
0.0590803
0.0633285
0.0697525
0.0824697
0.0784552
-0.159229
-0.119813
-0.0897846
-0.0660604
-0.048414
-0.0352219
-0.0247162
-0.0153577
-0.00617963
0.0030029
0.0122944
0.0215081
0.030676
0.0395932
0.0480262
0.0557472
0.062552
0.0683118
0.0731032
0.077101
0.0808019
0.0872145
0.100761
0.0937622
-0.164964
-0.124696
-0.0912529
-0.0650269
-0.0446821
-0.0286022
-0.0149431
-0.00252439
0.0092352
0.0205365
0.0312568
0.0414447
0.0510538
0.0600037
0.068182
0.0754705
0.0817669
0.0870405
0.0914242
0.0950676
0.0984536
0.10498
0.119316
0.109615
-0.170109
-0.128899
-0.0922986
-0.0634012
-0.0401317
-0.0208637
-0.0040517
0.0111393
0.0250888
0.0379336
0.0497282
0.0605282
0.0703789
0.0792976
0.0872778
0.0942912
0.100311
0.105364
0.109582
0.113055
0.116243
0.122889
0.137925
0.125992
-0.174607
-0.131978
-0.0926474
-0.0607509
-0.0342643
-0.0116725
0.00811733
0.0256983
0.0413926
0.0554082
0.0679106
0.0790605
0.0890018
0.0978503
0.105682
0.112533
0.118431
0.12343
0.127628
0.131034
0.134087
0.14081
0.156425
0.142925
-0.178267
-0.133921
-0.0918893
-0.0566357
-0.0266548
-0.000787456
0.0216751
0.041226
0.0582467
0.0730664
0.0859876
0.097287
0.107208
0.115946
0.123642
0.130387
0.136242
0.141278
0.145538
0.148935
0.151885
0.158618
0.174682
0.1605
-0.180951
-0.134889
-0.0896236
-0.0505773
-0.0169634
0.0119605
0.0367074
0.0578039
0.0757655
0.0910745
0.104173
0.115451
0.12524
0.133802
0.141332
0.14796
0.153781
0.158871
0.163225
0.166646
0.169511
0.176176
0.192525
0.178882
-0.182554
-0.134703
-0.0853797
-0.0421797
-0.00497166
0.0266835
0.0532968
0.0755344
0.0940884
0.109607
0.122668
0.133763
0.143299
0.15159
0.158872
0.165312
0.171034
0.176124
0.180553
0.184041
0.186878
0.193373
0.209718
0.198383
-0.182983
-0.132875
-0.0787126
-0.0311704
0.00945184
0.043469
0.0715387
0.0945404
0.113369
0.128841
0.141663
0.152416
0.161561
0.169456
0.176364
0.182485
0.187969
0.192925
0.197342
0.200953
0.203939
0.21007
0.225513
0.21974
-0.182119
-0.128906
-0.0692743
-0.0173527
0.0264218
0.0624206
0.0915505
0.114959
0.133763
0.148949
0.16134
0.171589
0.180202
0.187556
0.193933
0.199548
0.204567
0.20912
0.213255
0.21684
0.219848
0.224212
0.235318
0.245077
-0.179816
-0.122482
-0.0568089
-0.000533351
0.0460771
0.0836656
0.113465
0.136933
0.15542
0.170087
0.181862
0.191459
0.199407
0.206092
0.211795
0.216722
0.221024
0.224818
0.228177
0.231061
0.233104
0.234016
0.238228
0.272429
-0.175832
-0.113351
-0.0410687
0.0194936
0.0685872
0.107356
0.137422
0.160595
0.178472
0.192385
0.20337
0.212183
0.219367
0.225306
0.230274
0.234465
0.238021
0.241062
0.243635
0.245427
0.245855
0.247397
0.260932
0.279206
-0.16969
-0.101122
-0.0217523
0.0429765
0.0941542
0.133666
0.163556
0.18606
0.203019
0.21593
0.225958
0.233872
0.240218
0.245376
0.249611
0.253112
0.256022
0.258464
0.260433
0.261486
0.261432
0.264786
0.282278
0.289688
-0.161038
-0.0854157
0.00154401
0.0702727
0.122999
0.162782
0.191962
0.213396
0.229103
0.240784
0.249673
0.256573
0.262014
0.266364
0.269879
0.272742
0.275097
0.277061
0.278589
0.279197
0.278939
0.283061
0.301692
0.304202
-0.150955
-0.0662115
0.0294215
0.101902
0.155319
0.194777
0.222816
0.242661
0.256746
0.266928
0.274501
0.280266
0.284728
0.288232
0.291022
0.293269
0.295107
0.296641
0.297796
0.298059
0.297589
0.301922
0.320822
0.321013
-0.137389
-0.0427713
0.062621
0.138031
0.191797
0.22992
0.256075
0.273829
0.285906
0.294307
0.30037
0.30487
0.308266
0.310874
0.312915
0.314544
0.315876
0.316996
0.3178
0.317748
0.317048
0.321333
0.340013
0.338925
-0.120821
-0.00950452
0.10098
0.179397
0.232334
0.268233
0.29173
0.306824
0.316481
0.322808
0.327157
0.33025
0.332483
0.33413
0.335383
0.33637
0.337184
0.337881
0.338328
0.337966
0.337032
0.341136
0.359257
0.357443
-0.0982081
0.03306
0.146708
0.226542
0.277187
0.30972
0.329689
0.341498
0.348297
0.35225
0.354677
0.356218
0.357186
0.357803
0.358222
0.358539
0.358814
0.359076
0.359158
0.358493
0.35734
0.361179
0.378464
0.376243
-0.0701917
0.0877129
0.201302
0.280117
0.326522
0.354282
0.369736
0.377593
0.381093
0.382379
0.382686
0.382537
0.382143
0.381662
0.381202
0.380818
0.380536
0.380347
0.380058
0.379101
0.377754
0.381277
0.397512
0.395095
-0.0388578
0.160963
0.267406
0.340826
0.380308
0.401602
0.411479
0.414717
0.414505
0.412867
0.410883
0.408926
0.407089
0.405454
0.404077
0.40297
0.402116
0.401468
0.400807
0.399577
0.398068
0.401245
0.416262
0.413803
0.00853272
0.266852
0.348739
0.408812
0.437951
0.450984
0.454274
0.452316
0.448063
0.443308
0.438914
0.435066
0.431729
0.428904
0.42659
0.424748
0.423318
0.422211
0.421187
0.419708
0.418072
0.420885
0.434555
0.43217
0.153078
0.416472
0.4458
0.482389
0.497886
0.501213
0.497198
0.489677
0.481201
0.473242
0.466387
0.460613
0.455755
0.451731
0.448478
0.445907
0.443908
0.442354
0.440982
0.439284
0.437557
0.43999
0.45222
0.449991
)
;

boundaryField
{
    rotor
    {
        type            zeroGradient;
    }
    freestream
    {
        type            freestreamPressure;
        freestreamValue uniform 0;
        supersonic      false;
        value           nonuniform List<scalar> 
96
(
0.408556
0.432815
0.455741
0.476732
0.495714
0.512524
0.527021
0.538785
0.547592
0.553285
0.55575
0.554928
0.550813
0.543449
0.532932
0.519407
0.503071
0.484177
0.463005
0.439871
0.415126
0.389288
0.362632
0.335491
0.308239
0.281258
0.25491
0.229538
0.20545
0.182916
0.162169
0.143416
0.126893
0.113049
0.103125
0.0887564
0.0730172
0.0609796
0.0512617
0.0430554
0.0360392
0.0300069
0.0247891
0.0202443
0.0162594
0.0127511
0.00966998
0.00700163
0.00479904
0.00322703
0.00213649
0.00125678
0.000789115
0.00056837
0.000423863
0.000209124
0.000143254
0.000132788
1.39848e-05
-0.000266015
-0.00203027
-0.00323824
-0.00327438
-0.00277613
-0.00214787
-0.00148419
-0.000811079
-4.06998e-05
0.000885622
0.00211811
0.00374131
0.00590628
0.00877894
0.0124559
0.0170166
0.0225544
0.0291685
0.0369619
0.0460445
0.056537
0.0685891
0.0824226
0.0984851
0.117984
0.140235
0.153149
0.168903
0.187767
0.208889
0.231577
0.255479
0.280304
0.305786
0.331658
0.357627
0.383374
)
;
    }
    frontAndBack
    {
        type            empty;
    }
}


// ************************************************************************* //
