/*--------------------------------*- C++ -*----------------------------------*\
  =========                 |
  \\      /  F ield         | OpenFOAM: The Open Source CFD Toolbox
   \\    /   O peration     | Website:  https://openfoam.org
    \\  /    A nd           | Version:  11
     \\/     M anipulation  |
\*---------------------------------------------------------------------------*/
FoamFile
{
    format      ascii;
    class       surfaceScalarField;
    location    "1.88";
    object      phi;
}
// * * * * * * * * * * * * * * * * * * * * * * * * * * * * * * * * * * * * * //

dimensions      [0 3 -1 0 0 0 0];

internalField   nonuniform List<scalar> 
5640
(
-2.2817e-07
2.2817e-07
-4.5002e-07
2.2185e-07
-5.30595e-07
8.05747e-08
-2.67527e-07
-2.63068e-07
1.79445e-06
-2.06198e-06
-4.59048e-06
6.38493e-06
-2.31456e-07
4.59627e-07
-3.71011e-07
3.61405e-07
-3.31712e-07
4.12753e-08
1.15353e-07
-7.10133e-07
1.2274e-06
-3.17402e-06
-6.82509e-06
3.46202e-06
-2.04372e-07
6.63998e-07
-2.86591e-07
4.43624e-07
-1.98821e-07
-4.64941e-08
2.24303e-07
-1.13326e-06
8.95284e-07
-3.84501e-06
-7.76862e-06
1.83881e-06
-1.71073e-07
8.35071e-07
-2.21076e-07
4.93626e-07
-1.33542e-07
-1.34027e-07
1.74722e-07
-1.44152e-06
5.13995e-07
-4.18428e-06
-7.94506e-06
6.90437e-07
-1.36779e-07
9.7185e-07
-1.72902e-07
5.2975e-07
-1.16464e-07
-1.90465e-07
4.53811e-08
-1.60337e-06
9.95129e-08
-4.23841e-06
-7.61518e-06
-2.30364e-07
-1.04812e-07
1.07666e-06
-1.39083e-07
5.6402e-07
-1.31076e-07
-1.98472e-07
-1.20288e-07
-1.61416e-06
-3.33195e-07
-4.0255e-06
-6.98238e-06
-9.66002e-07
-7.66548e-08
1.15332e-06
-1.16069e-07
6.03435e-07
-1.63852e-07
-1.50689e-07
-2.96993e-07
-1.48102e-06
-7.25754e-07
-3.59674e-06
-6.09801e-06
-1.61012e-06
-5.23942e-08
1.20571e-06
-9.99782e-08
6.51019e-07
-2.03245e-07
-4.7422e-08
-4.63617e-07
-1.22064e-06
-1.06753e-06
-2.99283e-06
-5.02904e-06
-2.1365e-06
-3.13402e-08
1.23705e-06
-8.69545e-08
7.06633e-07
-2.39439e-07
1.05063e-07
-6.0472e-07
-8.55362e-07
-1.34526e-06
-2.25229e-06
-3.82769e-06
-2.54662e-06
-1.226e-08
1.24931e-06
-7.33778e-08
7.67751e-07
-2.64413e-07
2.96098e-07
-7.09088e-07
-4.10687e-07
-1.54941e-06
-1.41196e-06
-2.53462e-06
-2.84248e-06
5.51231e-09
1.2438e-06
-5.62478e-08
8.29511e-07
-2.72021e-07
5.11871e-07
-7.68758e-07
8.60497e-08
-1.67386e-06
-5.06861e-07
-1.18329e-06
-3.02519e-06
2.26399e-08
1.22116e-06
-3.33844e-08
8.85535e-07
-2.58055e-07
7.36542e-07
-7.78527e-07
6.06522e-07
-1.71471e-06
4.29318e-07
1.97191e-07
-3.09518e-06
4.05534e-08
1.18061e-06
-3.6175e-09
9.29706e-07
-2.20251e-07
9.53176e-07
-7.35625e-07
1.1219e-06
-1.66976e-06
1.36345e-06
1.57973e-06
-3.05229e-06
5.91162e-08
1.12149e-06
3.33765e-08
9.55446e-07
-1.58324e-07
1.14488e-06
-6.3955e-07
1.60312e-06
-1.53822e-06
2.26212e-06
2.93729e-06
-2.89578e-06
7.79664e-08
1.04352e-06
7.6421e-08
9.56991e-07
-7.40164e-08
1.29531e-06
-4.92088e-07
2.02119e-06
-1.32068e-06
3.09071e-06
4.24092e-06
-2.6243e-06
9.63223e-08
9.47201e-07
1.2348e-07
9.29833e-07
2.89152e-08
1.38988e-06
-2.97561e-07
2.34767e-06
-1.0194e-06
3.81254e-06
5.45724e-06
-2.23572e-06
1.13025e-07
8.34176e-07
1.71441e-07
8.71416e-07
1.44389e-07
1.41693e-06
-6.32843e-08
2.55534e-06
-6.38713e-07
4.38797e-06
6.54549e-06
-1.72696e-06
1.26647e-07
7.0753e-07
2.16367e-07
7.81696e-07
2.64535e-07
1.36876e-06
2.00384e-07
2.61949e-06
-1.8533e-07
4.77368e-06
7.45448e-06
-1.09433e-06
1.35667e-07
5.71862e-07
2.53714e-07
6.63649e-07
3.79224e-07
1.24325e-06
4.78379e-07
2.52034e-06
3.27396e-07
4.92467e-06
8.12597e-06
-3.44093e-07
1.38693e-07
4.33169e-07
2.78781e-07
5.23561e-07
4.76439e-07
1.04559e-06
7.50374e-07
2.2464e-06
8.8026e-07
4.79478e-06
8.45636e-06
5.49873e-07
1.34744e-07
2.98425e-07
2.87036e-07
3.7127e-07
5.42221e-07
7.90409e-07
9.88474e-07
1.80015e-06
1.44499e-06
4.33827e-06
8.27335e-06
1.628e-06
1.23575e-07
1.7485e-07
2.74465e-07
2.2038e-07
5.60798e-07
5.04075e-07
1.1515e-06
1.20945e-06
1.97148e-06
3.51828e-06
7.28954e-06
2.95529e-06
1.04841e-07
7.00084e-08
2.36626e-07
8.85961e-08
5.14516e-07
2.26185e-07
1.17565e-06
5.48316e-07
2.44582e-06
2.24812e-06
4.90783e-06
4.82753e-06
7.00084e-08
1.58604e-07
3.84789e-07
9.33105e-07
3.18122e-06
8.08905e-06
1.20413e-06
-2.74688e-05
3.26496e-05
-2.38662e-06
-3.2549e-05
3.61398e-05
-5.3337e-06
-3.44372e-05
3.73843e-05
-8.02288e-06
-3.49115e-05
3.76007e-05
-1.05597e-05
-3.50124e-05
3.75491e-05
-1.2977e-05
-3.50823e-05
3.74997e-05
-1.52984e-05
-3.52629e-05
3.75843e-05
-1.75464e-05
-3.55693e-05
3.78173e-05
-1.97391e-05
-3.59653e-05
3.81581e-05
-2.18892e-05
-3.6411e-05
3.8561e-05
-2.40043e-05
-3.68758e-05
3.89909e-05
-2.60884e-05
-3.73432e-05
3.94272e-05
-2.81432e-05
-3.78053e-05
3.986e-05
-3.01691e-05
-3.82574e-05
4.02833e-05
-3.21662e-05
-3.86957e-05
4.06928e-05
-3.41339e-05
-3.91172e-05
4.10848e-05
-3.60713e-05
-3.95193e-05
4.14567e-05
-3.79771e-05
-3.9901e-05
4.18069e-05
-3.98494e-05
-4.02635e-05
4.21358e-05
-4.16855e-05
-4.06099e-05
4.24459e-05
-4.34824e-05
-4.09436e-05
4.27405e-05
-4.52373e-05
-4.12679e-05
4.30229e-05
-4.69481e-05
-4.15903e-05
4.33011e-05
-4.20048e-05
4.36764e-05
2.98173e-07
-2.4305e-05
-3.00344e-06
-2.92474e-05
-6.04166e-06
-3.1399e-05
-8.86761e-06
-3.20856e-05
-1.15326e-05
-3.23474e-05
-1.40669e-05
-3.2548e-05
-1.64992e-05
-3.28306e-05
-1.88555e-05
-3.32131e-05
-2.11551e-05
-3.36657e-05
-2.34109e-05
-3.41552e-05
-2.56302e-05
-3.46565e-05
-2.78166e-05
-3.51567e-05
-2.99718e-05
-3.56501e-05
-3.20963e-05
-3.61329e-05
-3.419e-05
-3.66021e-05
-3.62523e-05
-3.70548e-05
-3.82825e-05
-3.74891e-05
-4.02791e-05
-3.79044e-05
-4.22401e-05
-3.83026e-05
-4.41629e-05
-3.86871e-05
-4.6045e-05
-3.90615e-05
-4.78844e-05
-3.94285e-05
-4.96803e-05
-3.97944e-05
-4.02448e-05
-7.37253e-07
-2.17289e-05
-3.77655e-06
-2.62081e-05
-6.81837e-06
-2.83572e-05
-9.71531e-06
-2.91886e-05
-1.24662e-05
-2.95966e-05
-1.50902e-05
-2.9924e-05
-1.76143e-05
-3.03065e-05
-2.00643e-05
-3.07631e-05
-2.24587e-05
-3.12713e-05
-2.48092e-05
-3.18047e-05
-2.71225e-05
-3.23432e-05
-2.94018e-05
-3.28774e-05
-3.16483e-05
-3.34035e-05
-3.38626e-05
-3.39186e-05
-3.60446e-05
-3.44201e-05
-3.81936e-05
-3.49058e-05
-4.03087e-05
-3.53739e-05
-4.23884e-05
-3.58247e-05
-4.44307e-05
-3.62603e-05
-4.6433e-05
-3.66848e-05
-4.83931e-05
-3.71014e-05
-5.03095e-05
-3.75122e-05
-5.21822e-05
-3.79217e-05
-3.84008e-05
-1.68958e-06
-1.93489e-05
-4.59396e-06
-2.33038e-05
-7.61153e-06
-2.53396e-05
-1.05407e-05
-2.62594e-05
-1.33472e-05
-2.67901e-05
-1.60388e-05
-2.72324e-05
-1.86382e-05
-2.77071e-05
-2.11681e-05
-2.82332e-05
-2.36451e-05
-2.87943e-05
-2.60794e-05
-2.93705e-05
-2.84763e-05
-2.99462e-05
-3.08385e-05
-3.05153e-05
-3.31669e-05
-3.10751e-05
-3.54619e-05
-3.16236e-05
-3.77233e-05
-3.21588e-05
-3.99504e-05
-3.26787e-05
-4.21421e-05
-3.31822e-05
-4.42968e-05
-3.367e-05
-4.64124e-05
-3.41447e-05
-4.84869e-05
-3.46103e-05
-5.05182e-05
-3.507e-05
-5.25053e-05
-3.55251e-05
-5.44473e-05
-3.59797e-05
-3.64819e-05
-2.54489e-06
-1.70344e-05
-5.3848e-06
-2.04639e-05
-8.37619e-06
-2.23482e-05
-1.13181e-05
-2.33175e-05
-1.41607e-05
-2.39475e-05
-1.69035e-05
-2.44896e-05
-1.9564e-05
-2.50465e-05
-2.21614e-05
-2.56358e-05
-2.47094e-05
-2.62463e-05
-2.72164e-05
-2.68635e-05
-2.96864e-05
-2.74762e-05
-3.21214e-05
-2.80803e-05
-3.4522e-05
-2.86745e-05
-3.68883e-05
-2.92573e-05
-3.92198e-05
-2.98272e-05
-4.15159e-05
-3.03826e-05
-4.37753e-05
-3.09229e-05
-4.59962e-05
-3.1449e-05
-4.81769e-05
-3.1964e-05
-5.03156e-05
-3.24716e-05
-5.24112e-05
-3.29744e-05
-5.44628e-05
-3.34735e-05
-5.64695e-05
-3.3973e-05
-3.44985e-05
-3.30398e-06
-1.46964e-05
-6.11244e-06
-1.76554e-05
-9.08124e-06
-1.93794e-05
-1.20266e-05
-2.03721e-05
-1.48931e-05
-2.1081e-05
-1.76748e-05
-2.17079e-05
-2.03849e-05
-2.23364e-05
-2.30384e-05
-2.29823e-05
-2.56464e-05
-2.36384e-05
-2.82153e-05
-2.42946e-05
-3.0748e-05
-2.49434e-05
-3.32457e-05
-2.55827e-05
-3.57085e-05
-2.62116e-05
-3.81364e-05
-2.68294e-05
-4.05286e-05
-2.74349e-05
-4.28844e-05
-2.80269e-05
-4.52021e-05
-2.86051e-05
-4.74803e-05
-2.91709e-05
-4.97173e-05
-2.9727e-05
-5.19123e-05
-3.02767e-05
-5.40646e-05
-3.0822e-05
-5.61744e-05
-3.13637e-05
-5.82414e-05
-3.1906e-05
-3.24606e-05
-3.96351e-06
-1.2343e-05
-6.75475e-06
-1.48642e-05
-9.70583e-06
-1.64283e-05
-1.26506e-05
-1.74273e-05
-1.55332e-05
-1.81984e-05
-1.83446e-05
-1.88966e-05
-2.10941e-05
-1.95868e-05
-2.37936e-05
-2.02828e-05
-2.6451e-05
-2.09809e-05
-2.90715e-05
-2.16742e-05
-3.16566e-05
-2.23583e-05
-3.42068e-05
-2.30325e-05
-3.6722e-05
-2.36964e-05
-3.92017e-05
-2.43497e-05
-4.16452e-05
-2.49914e-05
-4.40512e-05
-2.56209e-05
-4.64183e-05
-2.62381e-05
-4.87448e-05
-2.68443e-05
-5.10297e-05
-2.7442e-05
-5.32726e-05
-2.80338e-05
-5.54737e-05
-2.86209e-05
-5.76335e-05
-2.9204e-05
-5.97531e-05
-2.97863e-05
-3.03755e-05
-4.515e-06
-9.96454e-06
-7.2981e-06
-1.20811e-05
-1.0236e-05
-1.34905e-05
-1.31787e-05
-1.44846e-05
-1.60722e-05
-1.53049e-05
-1.89057e-05
-1.6063e-05
-2.1686e-05
-1.68066e-05
-2.44217e-05
-1.75471e-05
-2.71188e-05
-1.82838e-05
-2.97807e-05
-1.90123e-05
-3.24081e-05
-1.97309e-05
-3.50008e-05
-2.04397e-05
-3.75585e-05
-2.11387e-05
-4.00805e-05
-2.18277e-05
-4.25657e-05
-2.25062e-05
-4.50128e-05
-2.31738e-05
-4.74202e-05
-2.38308e-05
-4.97864e-05
-2.44781e-05
-5.21109e-05
-2.51176e-05
-5.43935e-05
-2.57512e-05
-5.66349e-05
-2.63795e-05
-5.88358e-05
-2.70031e-05
-6.09975e-05
-2.76246e-05
-2.82497e-05
-4.95267e-06
-7.55849e-06
-7.73362e-06
-9.3001e-06
-1.06623e-05
-1.05618e-05
-1.36026e-05
-1.15442e-05
-1.65032e-05
-1.24043e-05
-1.93528e-05
-1.32135e-05
-2.21557e-05
-1.40036e-05
-2.49187e-05
-1.47842e-05
-2.7646e-05
-1.55565e-05
-3.03394e-05
-1.63188e-05
-3.29991e-05
-1.70713e-05
-3.56244e-05
-1.78144e-05
-3.82148e-05
-1.85484e-05
-4.07693e-05
-1.92731e-05
-4.32869e-05
-1.99887e-05
-4.57658e-05
-2.06949e-05
-4.82046e-05
-2.1392e-05
-5.06019e-05
-2.20808e-05
-5.29573e-05
-2.27622e-05
-5.52711e-05
-2.34373e-05
-5.75441e-05
-2.41065e-05
-5.9777e-05
-2.47703e-05
-6.1971e-05
-2.54306e-05
-2.60918e-05
-5.27355e-06
-5.12741e-06
-8.05588e-06
-6.51777e-06
-1.09788e-05
-7.63896e-06
-1.39169e-05
-8.60609e-06
-1.68216e-05
-9.49957e-06
-1.96815e-05
-1.03536e-05
-2.24997e-05
-1.11854e-05
-2.52813e-05
-1.20026e-05
-2.80294e-05
-1.28085e-05
-3.07447e-05
-1.36035e-05
-3.34267e-05
-1.43893e-05
-3.60747e-05
-1.51664e-05
-3.8688e-05
-1.59351e-05
-4.12655e-05
-1.66957e-05
-4.38058e-05
-1.74484e-05
-4.63073e-05
-1.81934e-05
-4.87683e-05
-1.89309e-05
-5.11878e-05
-1.96613e-05
-5.35655e-05
-2.03845e-05
-5.59018e-05
-2.1101e-05
-5.81975e-05
-2.18108e-05
-6.04533e-05
-2.25145e-05
-6.26704e-05
-2.32135e-05
-2.39107e-05
-5.47619e-06
-2.67641e-06
-8.26181e-06
-3.73215e-06
-1.11818e-05
-4.71898e-06
-1.41181e-05
-5.66979e-06
-1.70243e-05
-6.59331e-06
-1.98894e-05
-7.48854e-06
-2.27157e-05
-8.35914e-06
-2.55074e-05
-9.21087e-06
-2.8267e-05
-1.00489e-05
-3.09944e-05
-1.08761e-05
-3.3689e-05
-1.16947e-05
-3.63499e-05
-1.25054e-05
-3.89763e-05
-1.33087e-05
-4.1567e-05
-1.4105e-05
-4.41205e-05
-1.48948e-05
-4.66352e-05
-1.56787e-05
-4.91094e-05
-1.64567e-05
-5.15421e-05
-1.72286e-05
-5.39331e-05
-1.79935e-05
-5.6283e-05
-1.87511e-05
-5.85925e-05
-1.95013e-05
-6.08622e-05
-2.02448e-05
-6.30933e-05
-2.09824e-05
-2.17155e-05
-5.55987e-06
-2.11721e-07
-8.34995e-06
-9.42075e-07
-1.12697e-05
-1.79927e-06
-1.42046e-05
-2.73488e-06
-1.71099e-05
-3.68802e-06
-1.9975e-05
-4.62343e-06
-2.28023e-05
-5.53182e-06
-2.55958e-05
-6.41738e-06
-2.83576e-05
-7.2871e-06
-3.10876e-05
-8.14609e-06
-3.3785e-05
-8.99723e-06
-3.64491e-05
-9.84138e-06
-3.90788e-05
-1.0679e-05
-4.1673e-05
-1.15108e-05
-4.423e-05
-1.23377e-05
-4.67483e-05
-1.31604e-05
-4.92264e-05
-1.39787e-05
-5.16632e-05
-1.47917e-05
-5.40586e-05
-1.5598e-05
-5.64131e-05
-1.63965e-05
-5.87274e-05
-1.7187e-05
-6.1002e-05
-1.79702e-05
-6.3238e-05
-1.87464e-05
-1.95154e-05
-5.52431e-06
2.2603e-06
-8.32e-06
1.85362e-06
-1.12421e-05
1.12284e-06
-1.41762e-05
1.99176e-07
-1.70781e-05
-7.86061e-07
-1.99383e-05
-1.76331e-06
-2.27596e-05
-2.71047e-06
-2.55466e-05
-3.63041e-06
-2.83016e-05
-4.53209e-06
-3.10247e-05
-5.42295e-06
-3.37153e-05
-6.30663e-06
-3.63726e-05
-7.18409e-06
-3.89956e-05
-8.05602e-06
-4.15831e-05
-8.92333e-06
-4.41338e-05
-9.78706e-06
-4.66462e-05
-1.0648e-05
-4.91189e-05
-1.15061e-05
-5.15507e-05
-1.23599e-05
-5.39416e-05
-1.32072e-05
-5.62918e-05
-1.40463e-05
-5.86019e-05
-1.48769e-05
-6.08724e-05
-1.56997e-05
-6.31042e-05
-1.65146e-05
-1.73197e-05
-5.36949e-06
4.73401e-06
-8.1726e-06
4.65673e-06
-1.11003e-05
4.0505e-06
-1.40343e-05
3.13319e-06
-1.69306e-05
2.11029e-06
-1.97808e-05
1.08686e-06
-2.25892e-05
9.79455e-08
-2.53613e-05
-8.58292e-07
-2.81004e-05
-1.79306e-06
-3.08069e-05
-2.71638e-06
-3.34807e-05
-3.63291e-06
-3.61209e-05
-4.54385e-06
-3.87269e-05
-5.44998e-06
-4.12979e-05
-6.35236e-06
-4.38326e-05
-7.25232e-06
-4.63297e-05
-8.15093e-06
-4.87877e-05
-9.0481e-06
-5.12055e-05
-9.94203e-06
-5.35828e-05
-1.08299e-05
-5.59197e-05
-1.17094e-05
-5.82166e-05
-1.258e-05
-6.04739e-05
-1.34424e-05
-6.26925e-05
-1.4296e-05
-1.51374e-05
-5.09566e-06
7.20537e-06
-7.90934e-06
7.4704e-06
-1.08465e-05
6.9877e-06
-1.37817e-05
6.06833e-06
-1.66702e-05
4.99885e-06
-1.95054e-05
3.922e-06
-2.22937e-05
2.88627e-06
-2.50424e-05
1.89042e-06
-2.7756e-05
9.20546e-07
-3.0436e-05
-3.63793e-08
-3.30826e-05
-9.86299e-07
-3.56957e-05
-1.93078e-06
-3.82749e-05
-2.8708e-06
-4.08195e-05
-3.80773e-06
-4.33285e-05
-4.74328e-06
-4.58007e-05
-5.6788e-06
-4.82346e-05
-6.61421e-06
-5.06291e-05
-7.54748e-06
-5.29837e-05
-8.47527e-06
-5.52983e-05
-9.39481e-06
-5.75731e-05
-1.03053e-05
-5.98082e-05
-1.12073e-05
-6.20045e-05
-1.20997e-05
-1.29777e-05
-4.70342e-06
9.67307e-06
-7.53291e-06
1.02999e-05
-1.04849e-05
9.93965e-06
-1.34227e-05
9.00621e-06
-1.63013e-05
7.8774e-06
-1.9116e-05
6.73675e-06
-2.18768e-05
5.64699e-06
-2.45932e-05
4.60686e-06
-2.72717e-05
3.59904e-06
-2.99151e-05
2.60704e-06
-3.25245e-05
1.62313e-06
-3.51004e-05
6.45093e-07
-3.76427e-05
-3.28485e-07
-4.0151e-05
-1.29943e-06
-4.26245e-05
-2.26984e-06
-4.50619e-05
-3.24132e-06
-4.74622e-05
-4.21392e-06
-4.98242e-05
-5.18551e-06
-5.2147e-05
-6.15247e-06
-5.44302e-05
-7.11156e-06
-5.66739e-05
-8.06167e-06
-5.88779e-05
-9.00324e-06
-6.10431e-05
-9.93454e-06
-1.08496e-05
-4.19414e-06
1.21402e-05
-7.04764e-06
1.31534e-05
-1.00211e-05
1.29131e-05
-1.29637e-05
1.19488e-05
-1.58297e-05
1.07435e-05
-1.86183e-05
9.52534e-06
-2.13435e-05
8.3722e-06
-2.40185e-05
7.2818e-06
-2.6652e-05
6.23252e-06
-2.92486e-05
5.20372e-06
-3.18107e-05
4.18516e-06
-3.43391e-05
3.17354e-06
-3.68344e-05
2.16675e-06
-3.92962e-05
1.16244e-06
-4.17241e-05
1.58076e-07
-4.41172e-05
-8.48242e-07
-4.64744e-05
-1.85677e-06
-4.87944e-05
-2.86548e-06
-5.10762e-05
-3.87063e-06
-5.33191e-05
-4.86866e-06
-5.55227e-05
-5.85807e-06
-5.76869e-05
-6.83907e-06
-5.9812e-05
-7.80942e-06
-8.76199e-06
-3.57092e-06
1.46168e-05
-6.46023e-06
1.60427e-05
-9.46384e-06
1.59167e-05
-1.24131e-05
1.4898e-05
-1.52635e-05
1.35939e-05
-1.80194e-05
1.22812e-05
-2.07004e-05
1.10533e-05
-2.33242e-05
9.90556e-06
-2.59024e-05
8.81072e-06
-2.84419e-05
7.74317e-06
-3.0946e-05
6.68928e-06
-3.34166e-05
5.64412e-06
-3.58544e-05
4.60462e-06
-3.82598e-05
3.56776e-06
-4.06322e-05
2.53055e-06
-4.29712e-05
1.49071e-06
-4.52756e-05
4.47678e-07
-4.75444e-05
-5.96757e-07
-4.97761e-05
-1.63893e-06
-5.19696e-05
-2.67508e-06
-5.41244e-05
-3.70333e-06
-5.62399e-05
-4.72355e-06
-5.83163e-05
-5.733e-06
-6.72351e-06
-2.83948e-06
1.71122e-05
-5.78081e-06
1.8984e-05
-8.82518e-06
1.89611e-05
-1.17825e-05
1.78553e-05
-1.46126e-05
1.64241e-05
-1.73278e-05
1.49963e-05
-1.9955e-05
1.36806e-05
-2.25172e-05
1.24677e-05
-2.50293e-05
1.13228e-05
-2.75006e-05
1.02145e-05
-2.99361e-05
9.12475e-06
-3.23383e-05
8.04627e-06
-3.47084e-05
6.97476e-06
-3.7047e-05
5.90642e-06
-3.93542e-05
4.83767e-06
-4.16293e-05
3.76583e-06
-4.38715e-05
2.68992e-06
-4.60797e-05
1.61136e-06
-4.82521e-05
5.33538e-07
-5.03875e-05
-5.39707e-07
-5.24847e-05
-1.60618e-06
-5.45429e-05
-2.66536e-06
-5.6562e-05
-3.71389e-06
-4.7426e-06
-2.00557e-06
1.96677e-05
-5.02495e-06
2.20034e-05
-8.12262e-06
2.20588e-05
-1.10871e-05
2.08197e-05
-1.38895e-05
1.92266e-05
-1.65537e-05
1.76604e-05
-1.91159e-05
1.62428e-05
-2.16049e-05
1.49567e-05
-2.40394e-05
1.37574e-05
-2.64314e-05
1.26065e-05
-2.87872e-05
1.14806e-05
-3.11102e-05
1.03693e-05
-3.34022e-05
9.26678e-06
-3.56641e-05
8.1683e-06
-3.78961e-05
7.06962e-06
-4.00978e-05
5.96752e-06
-4.22684e-05
4.86058e-06
-4.44068e-05
3.74968e-06
-4.65111e-05
2.63783e-06
-4.85795e-05
1.52873e-06
-5.06104e-05
4.24779e-07
-5.26027e-05
-6.7314e-07
-5.45555e-05
-1.76105e-06
-2.82703e-06
-1.07245e-06
2.23681e-05
-4.21733e-06
2.51483e-05
-7.38197e-06
2.52234e-05
-1.0347e-05
2.37847e-05
-1.31091e-05
2.19887e-05
-1.57085e-05
2.02598e-05
-1.81921e-05
1.87264e-05
-2.05951e-05
1.73597e-05
-2.294e-05
1.61023e-05
-2.5241e-05
1.49075e-05
-2.75059e-05
1.37455e-05
-2.9739e-05
1.26023e-05
-3.19424e-05
1.14702e-05
-3.41175e-05
1.03434e-05
-3.62645e-05
9.21664e-06
-3.83833e-05
8.08632e-06
-4.04731e-05
6.95042e-06
-4.25327e-05
5.80925e-06
-4.45601e-05
4.66522e-06
-4.65531e-05
3.52171e-06
-4.85095e-05
2.38117e-06
-5.04272e-05
1.24461e-06
-5.2304e-05
1.15754e-07
-9.83138e-07
4.47348e-08
2.52787e-05
-3.40422e-06
2.85972e-05
-6.64297e-06
2.84622e-05
-9.58848e-06
2.67302e-05
-1.22889e-05
2.46891e-05
-1.48046e-05
2.27755e-05
-1.71932e-05
2.1115e-05
-1.94958e-05
1.96622e-05
-2.17381e-05
1.83447e-05
-2.39361e-05
1.71055e-05
-2.60987e-05
1.59081e-05
-2.8231e-05
1.47345e-05
-3.03355e-05
1.35748e-05
-3.24138e-05
1.24216e-05
-3.44662e-05
1.12691e-05
-3.64927e-05
1.01128e-05
-3.84926e-05
8.95029e-06
-4.04644e-05
7.7811e-06
-4.24062e-05
6.60698e-06
-4.43153e-05
5.43077e-06
-4.61888e-05
4.25473e-06
-4.8024e-05
3.0798e-06
-4.98177e-05
1.90943e-06
7.82965e-07
9.32239e-07
2.9174e-05
-2.70422e-06
3.22337e-05
-5.96342e-06
3.17214e-05
-8.84424e-06
2.96111e-05
-1.14478e-05
2.72927e-05
-1.3854e-05
2.51817e-05
-1.6128e-05
2.3389e-05
-1.83142e-05
2.18485e-05
-2.04403e-05
2.04708e-05
-2.25229e-05
1.91881e-05
-2.4572e-05
1.79571e-05
-2.65928e-05
1.67554e-05
-2.85883e-05
1.55703e-05
-3.056e-05
1.43933e-05
-3.25084e-05
1.32175e-05
-3.44334e-05
1.20379e-05
-3.63343e-05
1.08512e-05
-3.82097e-05
9.65648e-06
-4.00574e-05
8.45463e-06
-4.18744e-05
7.24785e-06
-4.36578e-05
6.03809e-06
-4.54042e-05
4.82617e-06
-4.71102e-05
3.61544e-06
2.46157e-06
1.83683e-06
3.54262e-05
-2.2395e-06
3.631e-05
-5.41658e-06
3.48985e-05
-8.14758e-06
3.2342e-05
-1.06019e-05
2.9747e-05
-1.28661e-05
2.74459e-05
-1.5003e-05
2.55259e-05
-1.7056e-05
2.39014e-05
-1.90519e-05
2.24667e-05
-2.10071e-05
2.11434e-05
-2.29316e-05
1.98816e-05
-2.48307e-05
1.86545e-05
-2.67074e-05
1.7447e-05
-2.85632e-05
1.6249e-05
-3.03985e-05
1.50528e-05
-3.22133e-05
1.38526e-05
-3.40067e-05
1.26446e-05
-3.57773e-05
1.14271e-05
-3.7523e-05
1.02002e-05
-3.92406e-05
8.96548e-06
-4.09268e-05
7.72434e-06
-4.25781e-05
6.47747e-06
-4.41906e-05
5.22793e-06
4.04523e-06
1.24574e-06
-1.24574e-06
2.65193e-06
-1.4062e-06
3.61297e-06
-9.61039e-07
4.50073e-06
-8.87756e-07
4.48808e-06
1.26524e-08
3.12424e-06
1.36384e-06
1.56276e-06
-2.8085e-06
2.90603e-06
-2.74947e-06
3.85023e-06
-1.90524e-06
4.29237e-06
-1.3299e-06
3.47444e-06
8.30585e-07
6.10231e-06
4.96366e-07
1.56535e-06
-4.37385e-06
2.75005e-06
-3.93417e-06
3.53541e-06
-2.6906e-06
3.64405e-06
-1.43853e-06
2.4987e-06
1.97594e-06
8.99674e-06
-3.95736e-07
1.46717e-06
-5.84102e-06
2.48382e-06
-4.95083e-06
3.082e-06
-3.28878e-06
2.89425e-06
-1.25078e-06
1.53918e-06
3.33101e-06
1.17243e-05
-1.1884e-06
1.3172e-06
-7.15821e-06
2.16002e-06
-5.79365e-06
2.56299e-06
-3.69175e-06
2.15346e-06
-8.41247e-07
7.02367e-07
4.78211e-06
1.40522e-05
-1.62549e-06
1.14229e-06
-8.3005e-06
1.80654e-06
-6.4579e-06
2.03261e-06
-3.91783e-06
1.48142e-06
-2.90051e-07
1.24449e-08
6.25108e-06
1.58841e-05
-1.81948e-06
9.50298e-07
-9.2508e-06
1.4542e-06
-6.9618e-06
1.52611e-06
-3.98974e-06
9.09353e-07
3.26706e-07
-3.63068e-07
7.5235e-06
1.73522e-05
-1.83119e-06
7.5384e-07
-1.00046e-05
1.10898e-06
-7.31693e-06
1.06027e-06
-3.94103e-06
4.3213e-07
9.54846e-07
-6.50568e-07
8.6062e-06
1.84233e-05
-1.72165e-06
5.55569e-07
-1.05602e-05
7.76997e-07
-7.53836e-06
6.41904e-07
-3.80594e-06
4.96924e-08
1.54706e-06
-8.21902e-07
9.47779e-06
1.91197e-05
-1.51834e-06
3.57934e-07
-1.09181e-05
4.62447e-07
-7.64287e-06
2.72163e-07
-3.61566e-06
-2.53437e-07
2.07266e-06
-8.92038e-07
1.01164e-05
1.94713e-05
-1.24361e-06
1.62633e-07
-1.10808e-05
1.67371e-07
-7.64761e-06
-5.08313e-08
-3.39745e-06
-4.79793e-07
2.50162e-06
-8.82719e-07
1.05193e-05
1.95076e-05
-9.18985e-07
-2.98654e-08
-1.10509e-05
-1.07469e-07
-7.57001e-06
-3.29056e-07
-3.17587e-06
-6.46737e-07
2.8193e-06
-8.1564e-07
1.06882e-05
1.92562e-05
-5.6433e-07
-2.06405e-07
-1.08445e-05
-3.62948e-07
-7.41346e-06
-5.73861e-07
-2.96495e-06
-7.69217e-07
3.01466e-06
-7.11388e-07
1.06304e-05
1.87367e-05
-1.91842e-07
-3.79026e-07
-1.04655e-05
-6.02613e-07
-7.18988e-06
-7.92142e-07
-2.77543e-06
-8.6211e-07
3.08463e-06
-5.89813e-07
1.03581e-05
1.79778e-05
1.69062e-07
-5.43873e-07
-9.92161e-06
-8.29509e-07
-6.90424e-06
-9.92817e-07
-2.61212e-06
-9.39946e-07
3.03175e-06
-4.67836e-07
9.88599e-06
1.70031e-05
5.06855e-07
-7.00287e-07
-9.22132e-06
-1.04719e-06
-6.55734e-06
-1.18503e-06
-2.47428e-06
-1.01633e-06
2.86306e-06
-3.60478e-07
9.23013e-06
1.58274e-05
8.15241e-07
-8.47621e-07
-8.3737e-06
-1.25925e-06
-6.14571e-06
-1.37796e-06
-2.35557e-06
-1.10436e-06
2.58946e-06
-2.8231e-07
8.40809e-06
1.44699e-05
1.07518e-06
-9.84628e-07
-7.38907e-06
-1.46895e-06
-5.66139e-06
-1.58098e-06
-2.24354e-06
-1.21734e-06
2.22582e-06
-2.47297e-07
7.43804e-06
1.29505e-05
1.27208e-06
-1.10899e-06
-6.28009e-06
-1.67876e-06
-5.09162e-06
-1.80366e-06
-2.11864e-06
-1.37047e-06
1.79263e-06
-2.73359e-07
6.34093e-06
1.12883e-05
1.38888e-06
-1.2165e-06
-5.06359e-06
-1.8899e-06
-4.41822e-06
-2.05531e-06
-1.95323e-06
-1.58092e-06
1.31824e-06
-3.80654e-07
5.14067e-06
9.49435e-06
1.4133e-06
-1.30082e-06
-3.76276e-06
-2.10136e-06
-3.61768e-06
-2.34423e-06
-1.71036e-06
-1.8678e-06
8.41807e-07
-5.92385e-07
3.86526e-06
7.55866e-06
1.34331e-06
-1.34477e-06
-2.418e-06
-2.31613e-06
-2.64632e-06
-2.67792e-06
-1.34857e-06
-2.25178e-06
4.15663e-07
-9.37623e-07
2.5511e-06
5.41727e-06
1.20376e-06
-1.32682e-06
-1.09117e-06
-2.523e-06
-1.45014e-06
-3.05473e-06
-8.16842e-07
-2.74284e-06
1.03772e-07
-1.43087e-06
1.23913e-06
2.9295e-06
1.05691e-06
-1.09117e-06
-2.54131e-06
-3.35816e-06
-3.25438e-06
-2.01526e-06
9.14242e-07
1.15522e-06
3.56348e-05
-2.29028e-06
3.97555e-05
-5.05085e-06
3.7659e-05
-7.51106e-06
3.48023e-05
-9.75637e-06
3.19923e-05
-1.18437e-05
2.95332e-05
-1.3821e-05
2.75033e-05
-1.57243e-05
2.58047e-05
-1.75768e-05
2.43192e-05
-1.93934e-05
2.296e-05
-2.1183e-05
2.16712e-05
-2.29509e-05
2.04223e-05
-2.46997e-05
1.91959e-05
-2.64308e-05
1.79801e-05
-2.81446e-05
1.67666e-05
-2.98409e-05
1.55489e-05
-3.15188e-05
1.43226e-05
-3.3177e-05
1.30853e-05
-3.48132e-05
1.18364e-05
-3.64244e-05
1.05766e-05
-3.8007e-05
9.30694e-06
-3.95571e-05
8.02761e-06
-4.10704e-05
6.7412e-06
5.5273e-06
-4.97755e-07
3.66289e-05
-2.61095e-06
4.18687e-05
-4.78479e-06
3.98329e-05
-6.90331e-06
3.69208e-05
-8.89785e-06
3.39869e-05
-1.07811e-05
3.14164e-05
-1.25802e-05
2.93024e-05
-1.43197e-05
2.75442e-05
-1.60174e-05
2.6017e-05
-1.76854e-05
2.46279e-05
-1.93312e-05
2.3317e-05
-2.09593e-05
2.20504e-05
-2.2572e-05
2.08086e-05
-2.41705e-05
1.95786e-05
-2.5755e-05
1.83511e-05
-2.73253e-05
1.71192e-05
-2.88805e-05
1.58778e-05
-3.04191e-05
1.4624e-05
-3.19391e-05
1.33563e-05
-3.34372e-05
1.20748e-05
-3.491e-05
1.07797e-05
-3.63533e-05
9.47082e-06
-3.77619e-05
8.14981e-06
6.90175e-06
-1.44738e-06
3.76806e-05
-2.83091e-06
4.32523e-05
-4.50811e-06
4.15101e-05
-6.27301e-06
3.86857e-05
-8.00076e-06
3.57146e-05
-9.6662e-06
3.30818e-05
-1.12753e-05
3.09114e-05
-1.2841e-05
2.91099e-05
-1.43752e-05
2.75511e-05
-1.58864e-05
2.61391e-05
-1.73808e-05
2.48113e-05
-1.88618e-05
2.35314e-05
-2.03313e-05
2.22782e-05
-2.17902e-05
2.10375e-05
-2.32386e-05
1.97995e-05
-2.46761e-05
1.85567e-05
-2.61019e-05
1.73036e-05
-2.75145e-05
1.60366e-05
-2.89119e-05
1.47537e-05
-3.02912e-05
1.3454e-05
-3.16484e-05
1.2137e-05
-3.29793e-05
1.08017e-05
-3.42781e-05
9.44859e-06
8.16316e-06
-1.95656e-06
3.84487e-05
-2.86596e-06
4.41617e-05
-4.14505e-06
4.27892e-05
-5.57912e-06
4.01197e-05
-7.04258e-06
3.71781e-05
-8.48702e-06
3.45263e-05
-9.90075e-06
3.23252e-05
-1.12867e-05
3.04959e-05
-1.26512e-05
2.89156e-05
-1.39997e-05
2.74877e-05
-1.53366e-05
2.61482e-05
-1.66646e-05
2.48594e-05
-1.7985e-05
2.35986e-05
-1.92983e-05
2.23509e-05
-2.06046e-05
2.11058e-05
-2.19034e-05
1.98555e-05
-2.31939e-05
1.85941e-05
-2.44747e-05
1.73175e-05
-2.57439e-05
1.60229e-05
-2.69986e-05
1.47087e-05
-2.82351e-05
1.33735e-05
-2.94486e-05
1.20152e-05
-3.06326e-05
1.06327e-05
9.30675e-06
-2.1843e-06
3.90075e-05
-2.72672e-06
4.47041e-05
-3.6714e-06
4.37338e-05
-4.80281e-06
4.12512e-05
-6.01052e-06
3.83858e-05
-7.23576e-06
3.57515e-05
-8.45294e-06
3.35424e-05
-9.6563e-06
3.16993e-05
-1.08473e-05
3.01065e-05
-1.20289e-05
2.86693e-05
-1.3204e-05
2.73233e-05
-1.43743e-05
2.60297e-05
-1.55408e-05
2.4765e-05
-1.67037e-05
2.35138e-05
-1.78629e-05
2.2265e-05
-1.90178e-05
2.10104e-05
-2.01678e-05
1.9744e-05
-2.13116e-05
1.84613e-05
-2.24474e-05
1.71587e-05
-2.35725e-05
1.58338e-05
-2.46832e-05
1.44842e-05
-2.57747e-05
1.31067e-05
-2.68396e-05
1.16975e-05
1.03284e-05
-2.1806e-06
3.93687e-05
-2.4385e-06
4.4962e-05
-3.08444e-06
4.43798e-05
-3.93728e-06
4.2104e-05
-4.89983e-06
3.93483e-05
-5.90974e-06
3.67614e-05
-6.93116e-06
3.45638e-05
-7.95097e-06
3.27191e-05
-8.96656e-06
3.11221e-05
-9.97871e-06
2.96815e-05
-1.09889e-05
2.83335e-05
-1.19983e-05
2.70391e-05
-1.30073e-05
2.5774e-05
-1.40159e-05
2.45224e-05
-1.50239e-05
2.3273e-05
-1.60308e-05
2.20173e-05
-1.70358e-05
2.0749e-05
-1.80379e-05
1.94634e-05
-1.90355e-05
1.81563e-05
-2.00262e-05
1.68246e-05
-2.10066e-05
1.54647e-05
-2.19717e-05
1.40718e-05
-2.29132e-05
1.2639e-05
1.12244e-05
-1.98639e-06
3.95239e-05
-2.01462e-06
4.49902e-05
-2.38766e-06
4.47528e-05
-2.9823e-06
4.26986e-05
-3.71091e-06
4.00769e-05
-4.51003e-06
3.75605e-05
-5.33733e-06
3.53911e-05
-6.17378e-06
3.35555e-05
-7.01324e-06
3.19616e-05
-7.85457e-06
3.05228e-05
-8.69816e-06
2.91771e-05
-9.5445e-06
2.78854e-05
-1.03937e-05
2.66232e-05
-1.12454e-05
2.53742e-05
-1.20992e-05
2.41268e-05
-1.29546e-05
2.28727e-05
-1.3811e-05
2.16054e-05
-1.46672e-05
2.03196e-05
-1.55222e-05
1.90113e-05
-1.63739e-05
1.76763e-05
-1.72194e-05
1.63101e-05
-1.80539e-05
1.49062e-05
-1.88682e-05
1.34533e-05
1.19915e-05
-1.64855e-06
3.94508e-05
-1.46829e-06
4.48099e-05
-1.59068e-06
4.48752e-05
-1.9427e-06
4.30506e-05
-2.44714e-06
4.05814e-05
-3.0399e-06
3.81533e-05
-3.67521e-06
3.60264e-05
-4.32918e-06
3.42095e-05
-4.99268e-06
3.26251e-05
-5.66288e-06
3.1193e-05
-6.33925e-06
2.98534e-05
-7.0217e-06
2.85678e-05
-7.70992e-06
2.73114e-05
-8.40339e-06
2.60676e-05
-9.10145e-06
2.48249e-05
-9.80336e-06
2.35746e-05
-1.05083e-05
2.23103e-05
-1.12155e-05
2.10268e-05
-1.19238e-05
1.97195e-05
-1.26316e-05
1.83842e-05
-1.33371e-05
1.70156e-05
-1.40363e-05
1.56055e-05
-1.47196e-05
1.41367e-05
1.26263e-05
-1.20509e-06
3.91375e-05
-8.18395e-07
4.44233e-05
-7.05177e-07
4.4762e-05
-8.25867e-07
4.31713e-05
-1.11379e-06
4.08693e-05
-1.50407e-06
3.85436e-05
-1.94994e-06
3.64723e-05
-2.42264e-06
3.46822e-05
-2.91095e-06
3.31134e-05
-3.41057e-06
3.16926e-05
-3.92013e-06
3.0363e-05
-4.43903e-06
2.90867e-05
-4.96663e-06
2.7839e-05
-5.50212e-06
2.66031e-05
-6.04453e-06
2.53673e-05
-6.59279e-06
2.41229e-05
-7.14577e-06
2.28633e-05
-7.70226e-06
2.15833e-05
-8.26094e-06
2.02782e-05
-8.82039e-06
1.89436e-05
-9.37944e-06
1.75746e-05
-9.93686e-06
1.61629e-05
-1.04849e-05
1.46847e-05
1.31241e-05
-6.83758e-07
3.85777e-05
-8.15341e-08
4.3821e-05
2.56923e-07
4.44235e-05
3.58767e-07
4.30695e-05
2.80566e-07
4.09475e-05
8.71464e-08
3.8737e-05
-1.6793e-07
3.67273e-05
-4.60237e-07
3.49745e-05
-7.74551e-07
3.34277e-05
-1.10478e-06
3.20228e-05
-1.44879e-06
3.0707e-05
-1.80558e-06
2.94435e-05
-2.17429e-06
2.82077e-05
-2.55389e-06
2.69827e-05
-2.94316e-06
2.57566e-05
-3.34063e-06
2.45204e-05
-3.7446e-06
2.32673e-05
-4.1531e-06
2.19918e-05
-4.56377e-06
2.06889e-05
-4.9737e-06
1.93535e-05
-5.38001e-06
1.79809e-05
-5.78368e-06
1.65666e-05
-6.19203e-06
1.50931e-05
1.34771e-05
-9.69409e-08
3.77556e-05
7.13875e-07
4.30102e-05
1.28112e-06
4.38563e-05
1.60608e-06
4.27445e-05
1.73575e-06
4.08178e-05
1.73948e-06
3.87333e-05
1.66694e-06
3.67999e-05
1.552e-06
3.50894e-05
1.40997e-06
3.35698e-05
1.24752e-06
3.21853e-05
1.06726e-06
3.08873e-05
8.70394e-07
2.96404e-05
6.57776e-07
2.84203e-05
4.30374e-07
2.72101e-05
1.89372e-07
2.59976e-05
-6.37345e-08
2.47735e-05
-3.27034e-07
2.35306e-05
-5.98035e-07
2.22628e-05
-8.73397e-07
2.09643e-05
-1.14818e-06
1.96283e-05
-1.41341e-06
1.82462e-05
-1.65214e-06
1.68053e-05
-1.85409e-06
1.5295e-05
1.37338e-05
4.99417e-07
3.66919e-05
1.55397e-06
4.19557e-05
2.35174e-06
4.30585e-05
2.89911e-06
4.21972e-05
3.23445e-06
4.04825e-05
3.43215e-06
3.85356e-05
3.54467e-06
3.66874e-05
3.60669e-06
3.50274e-05
3.63578e-06
3.35407e-05
3.6397e-06
3.21814e-05
3.6215e-06
3.09055e-05
3.58239e-06
2.96795e-05
3.52304e-06
2.84797e-05
3.44402e-06
2.72892e-05
3.34605e-06
2.60955e-05
3.23006e-06
2.48895e-05
3.09736e-06
2.36633e-05
2.94982e-06
2.24103e-05
2.79015e-06
2.11239e-05
2.6226e-06
1.97959e-05
2.45446e-06
1.84143e-05
2.2971e-06
1.69627e-05
2.16135e-06
1.54308e-05
1.38506e-05
1.12383e-06
3.53762e-05
2.42101e-06
4.06585e-05
3.45494e-06
4.20246e-05
4.22335e-06
4.14288e-05
4.76856e-06
3.99373e-05
5.16134e-06
3.81428e-05
5.45834e-06
3.63904e-05
5.69679e-06
3.4789e-05
5.89628e-06
3.33412e-05
6.06569e-06
3.2012e-05
6.20853e-06
3.07626e-05
6.32602e-06
2.9562e-05
6.41861e-06
2.83871e-05
6.48653e-06
2.72212e-05
6.53013e-06
2.60519e-05
6.55014e-06
2.48694e-05
6.54791e-06
2.36655e-05
6.52598e-06
2.24323e-05
6.48853e-06
2.11614e-05
6.44202e-06
1.98424e-05
6.39468e-06
1.84616e-05
6.35409e-06
1.70032e-05
6.32894e-06
1.54559e-05
1.38135e-05
1.74901e-06
3.37963e-05
3.29615e-06
3.91113e-05
4.57284e-06
4.07479e-05
5.56693e-06
4.04347e-05
6.32706e-06
3.91772e-05
6.91743e-06
3.75524e-05
7.39994e-06
3.59078e-05
7.81508e-06
3.43738e-05
8.18491e-06
3.29713e-05
8.51969e-06