/*--------------------------------*- C++ -*----------------------------------*\
  =========                 |
  \\      /  F ield         | OpenFOAM: The Open Source CFD Toolbox
   \\    /   O peration     | Website:  https://openfoam.org
    \\  /    A nd           | Version:  11
     \\/     M anipulation  |
\*---------------------------------------------------------------------------*/
FoamFile
{
    format      ascii;
    class       volScalarField;
    location    "0.6";
    object      k;
}
// * * * * * * * * * * * * * * * * * * * * * * * * * * * * * * * * * * * * * //

dimensions      [0 2 -2 0 0 0 0];

internalField   nonuniform List<scalar> 
2880
(
0.00392101
0.00911304
0.0232234
0.0471672
0.0797457
0.117805
0.0163405
0.0263771
0.0458196
0.0713387
0.10258
0.138772
0.0206526
0.037098
0.0596115
0.086643
0.118347
0.153866
0.0228951
0.0445348
0.0689459
0.0971294
0.129404
0.165015
0.0243929
0.0502575
0.0757867
0.10471
0.137513
0.173896
0.0252659
0.0548616
0.0808531
0.110184
0.143485
0.180975
0.0268817
0.0583087
0.0844975
0.113954
0.147689
0.186385
0.0282435
0.0607923
0.086928
0.116255
0.150314
0.190197
0.0292707
0.0624314
0.0882851
0.117238
0.151478
0.192502
0.0299462
0.0633079
0.0886755
0.117035
0.151286
0.193441
0.0302608
0.063485
0.0882104
0.115712
0.14982
0.193193
0.0302304
0.0630101
0.0869244
0.11337
0.14718
0.191933
0.0298419
0.0619192
0.0849094
0.110096
0.14347
0.189861
0.0291482
0.0602297
0.082233
0.105976
0.138799
0.187283
0.0282542
0.0579413
0.0789583
0.101094
0.133245
0.184393
0.0271459
0.0550809
0.0751446
0.0955326
0.126843
0.18123
0.0258416
0.0516928
0.070853
0.0893692
0.119589
0.177659
0.0249634
0.0479301
0.0661607
0.0826853
0.111458
0.173296
0.0244663
0.0440763
0.0611583
0.0755674
0.102435
0.167443
0.0235187
0.0402927
0.0558933
0.0680768
0.0923598
0.159224
0.0220391
0.0363173
0.0502247
0.0601746
0.0810445
0.147706
0.0200459
0.0316232
0.0436211
0.0515209
0.0681888
0.132027
0.016181
0.0246919
0.0344131
0.0408051
0.0525414
0.111033
0.00415049
0.00901339
0.015536
0.0209682
0.0284901
0.0780925
0.167998
0.194626
0.2176
0.239073
0.258284
0.273167
0.281328
0.279544
0.270489
0.25249
0.227598
0.199824
0.173248
0.151013
0.134336
0.12265
0.114691
0.109474
0.106558
0.105933
0.106747
0.109238
0.113397
0.117778
0.181786
0.212887
0.240177
0.26419
0.28295
0.293457
0.292035
0.282797
0.263043
0.235295
0.204863
0.176303
0.15283
0.135357
0.122931
0.114056
0.107682
0.103403
0.101223
0.101223
0.102464
0.105506
0.109724
0.113813
0.195297
0.231987
0.263193
0.287703
0.302244
0.302538
0.293751
0.272702
0.242326
0.209523
0.179337
0.154931
0.136806
0.123641
0.113797
0.106224
0.10056
0.0968639
0.0953252
0.0956527
0.0973692
0.100742
0.104871
0.108661
0.20788
0.250003
0.283731
0.305612
0.310249
0.303062
0.282065
0.249603
0.214757
0.183179
0.157941
0.139114
0.12508
0.114159
0.105347
0.0983058
0.0931027
0.0899444
0.0889639
0.0896025
0.0917125
0.0951437
0.0991185
0.102624
0.219109
0.265524
0.299321
0.313266
0.30984
0.291437
0.257935
0.221451
0.188582
0.162423
0.14269
0.127571
0.115411
0.105284
0.0968711
0.0902108
0.0854915
0.0828736
0.0823586
0.0832487
0.0855938
0.0889693
0.0927276
0.0959534
0.228623
0.277598
0.307567
0.312911
0.299392
0.268096
0.23036
0.196163
0.168857
0.147936
0.131469
0.117865
0.106287
0.0964526
0.088365
0.0821547
0.0779661
0.0758472
0.0756745
0.0767315
0.0791553
0.082383
0.0858831
0.0888372
0.236221
0.285828
0.308834
0.303947
0.27968
0.241842
0.206399
0.177686
0.155263
0.13717
0.12188
0.108657
0.0972694
0.0877127
0.080054
0.0743712
0.0707033
0.0689872
0.0690099
0.070142
0.0725023
0.0755083
0.0787217
0.0814155
0.241866
0.289811
0.303372
0.289493
0.255959
0.219594
0.18927
0.165081
0.145105
0.127875
0.112752
0.0995933
0.0884231
0.0792758
0.0721506
0.067015
0.0637969
0.0623544
0.062433
0.0635398
0.0657094
0.0684355
0.0713433
0.0737909
0.245714
0.290082
0.29286
0.271577
0.235625
0.203821
0.177762
0.155731
0.136317
0.119003
0.103774
0.0907375
0.0799425
0.0713356
0.0647931
0.0601645
0.0572885
0.0559797
0.0560088
0.0569608
0.0588427
0.0612367
0.0638219
0.0660373
0.248005
0.287017
0.280992
0.253979
0.221344
0.193569
0.169482
0.147721
0.127918
0.110255
0.094997
0.0822671
0.0720052
0.0640161
0.0580465
0.0538473
0.0511978
0.0498994
0.0497591
0.0504617
0.0519662
0.0539745
0.056214
0.0582062
0.248939
0.281419
0.26962
0.24088
0.212322
0.186617
0.162592
0.140086
0.119596
0.101665
0.0865838
0.0743478
0.0647261
0.0573729
0.0519252
0.0480651
0.0455391
0.0441504
0.0437379
0.0441059
0.0451447
0.0467043
0.0485629
0.0503314
0.248732
0.274795
0.259984
0.233182
0.207024
0.181304
0.156133
0.13248
0.111354
0.0933743
0.0786907
0.0670905
0.0581566
0.0514121
0.0464166
0.0428119
0.0403297
0.0387793
0.0380261
0.0379672
0.0384652
0.0394887
0.0408996
0.0424225
0.247573
0.268755
0.253653
0.22965
0.203762
0.176567
0.149673
0.12485
0.103305
0.0855304
0.0714283
0.0605477
0.0523002
0.0461117
0.0414976
0.0380838
0.0355985
0.0338545
0.0327308
0.0321521
0.0320655
0.0324164
0.0332383
0.0344315
0.24595
0.264995
0.251354
0.228769
0.201402
0.171873
0.143087
0.117272
0.0955852
0.0782462
0.0648546
0.0547244
0.0471292
0.0414353
0.0371429
0.0338801
0.0313786
0.0294512
0.0279742
0.026872
0.0260998
0.025641
0.0255706
0.0261235
0.244369
0.263597
0.251338
0.22937
0.199302
0.167005
0.136395
0.10986
0.0883071
0.0715878
0.0589801
0.049591
0.0425978
0.0373406
0.0333268
0.0301991
0.0276997
0.025641
0.0238857
0.0223306
0.0208847
0.0194453
0.0179186
0.0167174
0.243087
0.264128
0.254137
0.230858
0.197127
0.161897
0.129674
0.102722
0.0815475
0.0655763
0.0537777
0.0450944
0.0386477
0.0337792
0.030018
0.0270302
0.0245745
0.0224692
0.0205684
0.0187399
0.0168383
0.0146681
0.0118945
0.0075219
0.242456
0.268259
0.259216
0.232497
0.19464
0.156553
0.12301
0.0959409
0.0753414
0.060194
0.0491932
0.0411648
0.0352099
0.0306912
0.0271688
0.0243366
0.0219758
0.0199217
0.0180412
0.0162138
0.0143142
0.0122062
0.00972782
0.00631578
0.243109
0.275304
0.266035
0.234041
0.191803
0.151026
0.116478
0.0895642
0.0696873
0.0553955
0.0451558
0.0377228
0.0322058
0.028001
0.024703
0.0220349
0.0198006
0.017855
0.0160825
0.0143807
0.0126429
0.010756
0.00861162
0.0059051
0.246123
0.285242
0.274046
0.235427
0.188575
0.145344
0.110124
0.0836064
0.0645563
0.0511194
0.0415887
0.0346885
0.0295562
0.0256281
0.0225337
0.0200221
0.0179173
0.0160891
0.0144349
0.0128642
0.0112835
0.00960125
0.00775664
0.00558092
0.252079
0.298046
0.282635
0.236316
0.184849
0.139506
0.103964
0.0780573
0.0599031
0.0472985
0.0384189
0.0319906
0.0271933
0.023506
0.0205911
0.0182213
0.016237
0.0145205
0.0129798
0.0115339
0.0101019
0.00861279
0.00704009
0.00529254
0.262175
0.313728
0.291117
0.236458
0.180508
0.133496
0.097995
0.0728886
0.0556745
0.0438692
0.0355826
0.0295708
0.0250648
0.0215869
0.01883
0.0165876
0.0147143
0.0131032
0.0116708
0.0103456
0.00905797
0.00775396
0.00642695
0.00502698
0.27798
0.332169
0.297616
0.235148
0.175388
0.127283
0.0921984
0.0680646
0.0518207
0.0407767
0.0330283
0.0273843
0.0231328
0.0198386
0.0172227
0.0150968
0.0133279
0.011818
0.0104917
0.00928492
0.00813776
0.00700856
0.0059011
0.00478833
0.301637
0.352681
0.30161
0.232147
0.169364
0.120825
0.086554
0.0635546
0.0482994
0.037976
0.0307151
0.0253972
0.0213705
0.0182403
0.0157529
0.013736
0.0120672
0.0106564
0.00943433
0.00834346
0.00733149
0.00636518
0.00545238
0.00457832
0.33865
0.370485
0.303098
0.226922
0.162268
0.114099
0.0810601
0.0593397
0.0450769
0.0354311
0.0286121
0.0235852
0.0197597
0.0167787
0.0144111
0.0124984
0.0109273
0.00961392
0.00849444
0.00751625
0.00663279
0.00581622
0.00507444
0.00439829
0.00605991
0.0366416
0.0788367
0.127164
0.15356
0.197208
0.0208658
0.0725924
0.119277
0.168462
0.224581
0.332548
0.0301477
0.0913146
0.141932
0.19497
0.259358
0.349711
0.0378559
0.103821
0.156965
0.2119
0.275323
0.347335
0.0445141
0.113272
0.167741
0.222766
0.282118
0.339058
0.0501088
0.120747
0.175635
0.229517
0.283697
0.328936
0.0546635
0.126688
0.18135
0.233385
0.282414
0.318373
0.0582315
0.131301
0.185293
0.23517
0.27942
0.308057
0.0608807
0.134686
0.187738
0.235435
0.275542
0.298383
0.0626804
0.136906
0.188885
0.23458
0.271252
0.289669
0.063696
0.138011
0.188897
0.232905
0.266874
0.282094
0.0639772
0.138044
0.1879
0.230612
0.26265
0.275757
0.0636021
0.13704
0.185986
0.227832
0.258744
0.270714
0.0626238
0.135018
0.183209
0.224624
0.255237
0.267
0.0609749
0.132001
0.179575
0.220981
0.252132
0.264643
0.0586076
0.127987
0.175041
0.216817
0.249342
0.263643
0.055486
0.122944
0.16951
0.211967
0.246661
0.263997
0.0515731
0.116802
0.162817
0.206178
0.243725
0.265666
0.046828
0.109432
0.154713
0.19905
0.239981
0.268673
0.0412155
0.100613
0.144813
0.189985
0.234556
0.272891
0.0347209
0.0899182
0.132492
0.178123
0.226225
0.277439
0.0273891
0.0763979
0.116556
0.162129
0.212892
0.279406
0.0186031
0.0573354
0.0941273
0.139669
0.190494
0.267906
0.00472345
0.0257314
0.0592403
0.107705
0.151974
0.159811
0.388955
0.378306
0.298547
0.21887
0.154046
0.107154
0.0757472
0.0554141
0.0421286
0.0331146
0.0266958
0.0219305
0.0182878
0.0154452
0.0131914
0.0113798
0.00990452
0.00868714
0.00766795
0.00679821
0.00603548
0.00535492
0.00476175
0.00424795
0.417808
0.371908
0.287533
0.208213
0.144942
0.100147
0.0706776
0.0517832
0.0394377
0.0310061
0.0249493
0.020421
0.0169465
0.0142342
0.0120898
0.0103768
0.00899558
0.00787219
0.00695021
0.00618376
0.00553312
0.00497446
0.00450841
0.00412536
0.404158
0.354818
0.272909
0.195954
0.135438
0.0932973
0.0659264
0.0484557
0.0369918
0.0290903
0.0233601
0.019048
0.01573
0.0131414
0.0111027
0.00948576
0.00819638
0.00716425
0.00633557
0.0056664
0.00511847
0.00466721
0.00430761
0.00402743
0.383766
0.334799
0.256573
0.183088
0.126025
0.0868099
0.0615552
0.045436
0.0347797
0.0273549
0.021919
0.017805
0.0146336
0.0121631
0.0102264
0.00870244
0.00750186
0.0065574
0.00581727
0.00523854
0.00478312
0.00442448
0.00415185
0.00395062
0.362824
0.314238
0.239933
0.170416
0.117085
0.0808294
0.0575977
0.0427197
0.032789
0.0257896
0.0206188
0.016687
0.0136532
0.0112951
0.0094561
0.00802152
0.00690592
0.00604473
0.00538752
0.00489147
0.00451764
0.00423688
0.00403349
0.00389143
0.342998
0.294692
0.223963
0.158477
0.108861
0.0754316
0.0540611
0.0402952
0.0310072
0.0243851
0.0194533
0.0156891
0.0127842
0.0105326
0.00878653
0.00743682
0.00640159
0.00561847
0.0050377
0.00461568
0.00431196
0.00409496
0.00394543
0.00384677
0.324896
0.276762
0.209209
0.147583
0.10147
0.0706374
0.0509327
0.0381458
0.0294212
0.0231329
0.0184163
0.0148062
0.0120216
0.00987004
0.00821142
0.00694138
0.00598123
0.00527029
0.00475869
0.00440129
0.00415603
0.00398982
0.00388137
0.00381401
0.308748
0.260698
0.195951
0.137875
0.0949476
0.0664316
0.0481883
0.0362523
0.0280186
0.0220249
0.017502
0.0140332
0.0113599
0.00930137
0.00772399
0.00652776
0.00563679
0.00499149
0.00454112
0.00423856
0.00404048
0.00391344
0.00383586
0.00379061
0.294635
0.246611
0.184304
0.129386
0.0892708
0.0627784
0.0457982
0.0345951
0.0267871
0.0210531
0.0167043
0.0133644
0.0107935
0.00882039
0.00731742
0.0061885
0.00536017
0.00477334
0.00437584
0.00411851
0.00395736
0.00385953
0.00380408
0.00377416
0.282577
0.234521
0.174275
0.122084
0.0843907
0.0596329
0.0437311
0.0331553
0.0257154
0.0202099
0.0160175
0.0127947
0.0103169
0.00842126
0.00698539
0.00591675
0.00514391
0.00460781
0.00425454
0.00403328
0.00390009
0.00382323
0.00378296
0.00376314
0.27257
0.2244
0.165814
0.115899
0.0802422
0.056947
0.0419565
0.0319149
0.0247924
0.0194881
0.0154359
0.0123187
0.00992492
0.00809865
0.00672226
0.00570647
0.00498147
0.00448784
0.00417005
0.0039762
0.00386309
0.0038009
0.00377041
0.00375648
0.264597
0.216196
0.158839
0.110746
0.0767545
0.0546721
0.0404449
0.0308568
0.0240075
0.0188802
0.0149535
0.0119313
0.0096125
0.00784744
0.00652277
0.00555211
0.00486692
0.00440731
0.00411643
0.00394207
0.00384228
0.00378926
0.00376407
0.00375313
0.258648
0.209849
0.153261
0.106531
0.0738559
0.0527613
0.0391681
0.0299635
0.0233502
0.0183791
0.0145646
0.0116272
0.00937453
0.00766254
0.00638174
0.0054483
0.00479473
0.00436075
0.00408876
0.00392694
0.0038348
0.00378593
0.00376246
0.00375221
0.254737
0.205309
0.148988
0.103164
0.0714765
0.0511695
0.0380986
0.0292184
0.0228097
0.0179772
0.0142629
0.0114007
0.00920583
0.00753901
0.0062943
0.00539017
0.00476005
0.00434372
0.00408309
0.00392768
0.00383836
0.00378922
0.00376441
0.00375266
0.252932
0.202552
0.145936
0.100555
0.0695479
0.0498527
0.0372098
0.0286047
0.0223751
0.0176663
0.0140418
0.0112464
0.00910141
0.00747228
0.00625623
0.00537378
0.00475891
0.00435178
0.00409644
0.00394205
0.00385114
0.00379889
0.00376984
0.0037542
0.253314
0.201577
0.14403
0.0986169
0.0680017
0.0487667
0.0364745
0.0281052
0.0220345
0.0174377
0.0138944
0.0111583
0.00905644
0.00745822
0.00626314
0.00539343
0.0047867
0.00438365
0.0041271
0.00396876
0.00387234
0.00381382
0.00377839
0.00375693
0.256056
0.20242
0.14322
0.0972674
0.0667687
0.0478661
0.0358643
0.0277018
0.0217754
0.0172821
0.0138135
0.0111308
0.00906564
0.00749075
0.00630962
0.00544882
0.00484429
0.00443751
0.00417417
0.00400742
0.0039019
0.00383415
0.00378998
0.00376082
0.261403
0.205136
0.143402
0.0964495
0.0658011
0.0471139
0.0353522
0.0273751
0.0215846
0.0171898
0.0137915
0.0111571
0.00912342
0.00756779
0.00639765
0.00553866
0.00492893
0.00451261
0.00423742
0.00405809
0.00394009
0.00386028
0.00380502
0.00376618
0.269631
0.209784
0.144495
0.0960364
0.0650363
0.0464779
0.0349203
0.0271124
0.0214503
0.017151
0.0138207
0.0112324
0.00922785
0.0076888
0.00652356
0.00566036
0.00504
0.0046089
0.00431718
0.00412135
0.00398756
0.0038929
0.00382421
0.00377358
0.280989
0.216381
0.146336
0.0958875
0.0643753
0.0459066
0.0345368
0.0268931
0.021359
0.0171553
0.0138939
0.0113518
0.00937523
0.00784888
0.00668444
0.00581292
0.00517738
0.0047269
0.00441436
0.00419823
0.00404536
0.00393302
0.00384849
0.00378369
0.295527
0.224773
0.148637
0.0958093
0.0637167
0.0453433
0.0341692
0.0266959
0.0212951
0.0171917
0.0140021
0.0115077
0.00955881
0.00804402
0.00687834
0.00599553
0.00534126
0.00486755
0.00453032
0.00429022
0.00411492
0.00398194
0.00387893
0.00379732
0.312028
0.234344
0.15085
0.0955295
0.0629466
0.0447359
0.0337872
0.0265008
0.0212445
0.0172495
0.014137
0.0116935
0.00977385
0.00827091
0.00710318
0.00620735
0.00553188
0.00503195
0.00466671
0.00439914
0.004198
0.00404117
0.00391676
0.00381533
0.325748
0.243443
0.151883
0.0946946
0.0619586
0.0440422
0.0333657
0.0262906
0.0211946
0.0173186
0.0142906
0.0119028
0.0100154
0.0085259
0.00735655
0.00644717
0.0057492
0.00522102
0.00482507
0.00452693
0.00429661
0.0041126
0.00396315
0.00383861
0.315448
0.246674
0.15052
0.0930201
0.0607048
0.0432369
0.0328888
0.0260525
0.0211352
0.0173909
0.0144559
0.0121298
0.0102789
0.00880549
0.00763608
0.0067138
0.00599313
0.0054357
0.00500721
0.00467593
0.00441324
0.00419807
0.00401825
0.00386729
0.00606613
0.00983543
0.0171809
0.0235224
0.0351092
0.118296
0.0189828
0.027138
0.0412055
0.0514794
0.0830047
0.157943
0.0226544
0.036686
0.0563686
0.0753227
0.122345
0.189121
0.0251727
0.0451569
0.0694133
0.0968657
0.144911
0.193508
0.0295686
0.0536434
0.0811852
0.113612
0.158181
0.19025
0.0328599
0.0616391
0.0912653
0.125883
0.163631
0.182052
0.0354994
0.0689722
0.0996668
0.134601
0.16364
0.173678
0.0376796
0.0755961
0.106662
0.140213
0.161608
0.165724
0.0394887
0.0814644
0.112541
0.143249
0.158269
0.158355
0.0409697
0.0864809
0.117434
0.144497
0.155088
0.151588
0.0420143
0.0906243
0.121368
0.144918
0.152248
0.145673
0.0425829
0.0938449
0.12444
0.145077
0.149937
0.14079
0.0426546
0.0960853
0.126741
0.145325
0.148348
0.137096
0.0422996
0.0973011
0.128324
0.145825
0.147718
0.13479
0.0415013
0.097468
0.129215
0.146759
0.147984
0.134372
0.0402962
0.0965897
0.129399
0.148183
0.149293
0.135437
0.0386945
0.0946792
0.1288
0.149835
0.15218
0.138972
0.0366709
0.0917385
0.127286
0.151306
0.156474
0.145022
0.0341613
0.0877099
0.124603
0.151954
0.161643
0.152922
0.0310532
0.0824014
0.120307
0.151055
0.166415
0.161684
0.0271847
0.0753582
0.113687
0.147103
0.168369
0.169126
0.0248623
0.065537
0.103474
0.137805
0.164746
0.172169
0.0202827
0.0510997
0.0867195
0.119706
0.150036
0.162608
0.00605229
0.0240569
0.0540141
0.0837181
0.114933
0.11705
0.290111
0.238362
0.146632
0.0905346
0.0591208
0.0422733
0.0323398
0.0257781
0.02106
0.0174603
0.0146277
0.0123702
0.0105606
0.00910703
0.00794016
0.00700666
0.00626415
0.00567732
0.00521504
0.00484821
0.00454968
0.00429887
0.00408357
0.00390179
0.260617
0.220352
0.139977
0.0869368
0.0571206
0.041131
0.0317051
0.0254656
0.0209664
0.0175239
0.0148029
0.012621
0.0108585
0.00942913
0.00826832
0.0073263
0.00656369
0.00594811
0.00545131
0.00504671
0.0047086
0.0044171
0.00416077
0.00394264
0.235973
0.198442
0.130259
0.0821321
0.0546715
0.0398058
0.0309876
0.0251182
0.0208553
0.0175816
0.0149808
0.0128816
0.0111718
0.00977165
0.00862108
0.00767394
0.00689373
0.00625065
0.00571901
0.00527452
0.00489304
0.00455602
0.00425435
0.00399201
0.215101
0.17822
0.11956
0.0767194
0.0519366
0.0383415
0.0302042
0.0247381
0.0207318
0.0176368
0.0151635
0.0131529
0.0115014
0.0101354
0.00899947
0.00805106
0.00725626
0.00658754
0.00602139
0.00553558
0.00510757
0.00472051
0.00436815
0.00405215
0.197124
0.160364
0.109283
0.07146
0.0492607
0.0368945
0.0294067
0.024348
0.0206082
0.0176968
0.0153556
0.0134381
0.0118493
0.0105218
0.0094049
0.00845918
0.00765316
0.00696125
0.00636169
0.00583396
0.00535687
0.00491508
0.00450503
0.00412427
0.181317
0.144864
0.0999036
0.0665652
0.0467513
0.0355291
0.0286541
0.0239765
0.0204997
0.0177716
0.0155637
0.0137417
0.0122188
0.0109336
0.00983951
0.00890032
0.00808667
0.00737448
0.00674332
0.0061738
0.00564548
0.00514395
0.00466804
0.00420959
0.167152
0.131548
0.0915999
0.0621383
0.0444522
0.0342744
0.0279683
0.0236457
0.0204211
0.0178718
0.0157959
0.01407
0.0126148
0.0113744
0.0103065
0.00937739
0.00855967
0.00783043
0.00716999
0.00655941
0.00597815
0.00541173
0.0048609
0.00430982
0.154646
0.120212
0.084391
0.0582146
0.0423837
0.0331452
0.027363
0.0233711
0.0203835
0.0180079
0.0160611
0.0144303
0.0130435
0.0118498
0.0108105
0.00989461
0.00907615
0.00833305
0.00764588
0.00699538
0.00635992
0.00572361
0.00508808
0.00442696
0.143777
0.11065
0.0782206
0.0547952
0.0405554
0.0321518
0.0268492
0.0231667
0.0203988
0.0181912
0.0163695
0.014832
0.0135132
0.0123671
0.0113584
0.0104582
0.00964187
0.0088878
0.00817632
0.00748715
0.00679655
0.00608557
0.00535481
0.00456314
0.134491
0.102677
0.0730174
0.0518687
0.0389741
0.0313063
0.0264397
0.0230535
0.0204868
0.0184355
0.0167335
0.0152865
0.0140349
0.0129369
0.0119601
0.0110777
0.0102658
0.00950322
0.00876941
0.00804254
0.00729583
0.00650544
0.00566792
0.00472039
0.126722
0.0961249
0.0687133
0.0494201
0.0376482
0.0306196
0.0261446
0.0230248
0.0206554
0.0187538
0.0171667
0.0158077
0.0146225
0.0135732
0.01263
0.0117676
0.0109629
0.0101942
0.00943992
0.00867591
0.00787165
0.00699678
0.00603911
0.00490123
0.120418
0.090865
0.0652492
0.0474404
0.0365922
0.0301069
0.0259799
0.023104
0.0209212
0.0191619
0.0176853
0.0164121
0.0152933
0.0142943
0.0133879
0.0125499
0.0117575
0.010988
0.0102177
0.009419
0.00855658
0.00759221
0.00649822
0.00511426
0.115549
0.0868103
0.0625871
0.0459342
0.0358182
0.0297886
0.0259687
0.0233145
0.0213033
0.0196782
0.0183077
0.017119
0.0160677
0.015123
0.0142598
0.0134556
0.0126877
0.0119323
0.0111628
0.0103467
0.0094411
0.00839454
0.00715015
0.00542135
0.112137
0.083921
0.060714
0.0449119
0.035352
0.0296899
0.0261314
0.0236763
0.0218222
0.0203229
0.0190542
0.0179491
0.0169679
0.0160837
0.0152749
0.0145214
0.0138026
0.0130962
0.0123771
0.0116137
0.0107615
0.00974785
0.00841771
0.00628874
0.110317
0.0822282
0.059657
0.0444211
0.0352304
0.0298407
0.0264957
0.0242131
0.0225005
0.021118
0.0199465
0.0189239
0.0180154
0.017199
0.0164577
0.0157765
0.0151407
0.0145364
0.0139527
0.0133846
0.0128351
0.012326
0.0119622
0.0121091
0.110291
0.0818554
0.0594787
0.0444823
0.0354999
0.0302808
0.0270938
0.0249529
0.023364
0.0220877
0.0210073
0.0200648
0.0192302
0.0184866
0.0178235
0.0172329
0.0167091
0.0162502
0.0158616
0.0155596
0.0153723
0.0153558
0.0156418
0.0164168
0.112126
0.0828617
0.0602925
0.0452364
0.0362384
0.0310655
0.0279671
0.0259297
0.0244426
0.0232593
0.0222621
0.0213949
0.0206319
0.0199621
0.0193822
0.0188933
0.0185007
0.018215
0.0180557
0.0180521
0.0182277
0.0186369
0.0193773
0.0204774
0.116708
0.0857592
0.0623413
0.0468186
0.0375517
0.0322703
0.0291714
0.0271875
0.0257735
0.0246661
0.0237409
0.0229409
0.0222432
0.0216425
0.0211435
0.0207573
0.0205005
0.0203965
0.0204695
0.020751
0.021281
0.0220685
0.0231708
0.0245342
0.1246
0.0910497
0.0660111
0.0494892
0.0396095
0.0340088
0.0307865
0.0287864
0.0274058
0.0263506
0.0254818
0.024737
0.0240938
0.0235515
0.0231227
0.0228288
0.0226991
0.0227599
0.0230388
0.0235991
0.0244421
0.0255626
0.026985
0.0286016
0.135696
0.0992349
0.0718275
0.0536458
0.0426814
0.0364585
0.0329325
0.0308133
0.0294077
0.0283705
0.027536
0.0268297
0.0262254
0.0257246
0.0253467
0.0251239
0.0250978
0.0252807
0.0257458
0.0265414
0.0276575
0.0290731
0.0307917
0.0326686
0.148328
0.11015
0.0802166
0.0597819
0.0471564
0.0398905
0.0357946
0.0333996
0.0318789
0.0308073
0.0299751
0.0292844
0.0286984
0.0282165
0.0278623
0.0276782
0.0277139
0.0279764
0.0285753
0.0295521
0.0308925
0.0325632
0.0345574
0.0367054
0.157547
0.122137
0.090976
0.0683158
0.0535372
0.0447049
0.0396574
0.0367461
0.034968
0.0337792
0.0328999
0.0321928
0.0315994
0.0311093
0.0307451
0.0305563
0.0306026
0.0308881
0.0315458
0.032633
0.0341328
0.036006
0.0382442
0.0406703
0.155624
0.131247
0.102245
0.0788073
0.0621028
0.0513516
0.0449076
0.0411429
0.0388892
0.0374519
0.0364487
0.035679
0.0350467
0.0345193
0.0341089
0.033864
0.0338646
0.0341049
0.0347248
0.0358272
0.0373954
0.0393957
0.0418257
0.0445257
0.137471
0.129556
0.110042
0.0889414
0.0719067
0.0597317
0.0517793
0.0468678
0.0438861
0.0420251
0.0407887
0.0398924
0.0391834
0.0385917
0.0381054
0.0377604
0.0376393
0.0377819
0.0382567
0.0392358
0.0407508
0.0427701
0.0453082
0.0482575
0.00430336
0.0104367
0.0209117
0.0322004
0.041946
0.0525343
0.0169475
0.0281049
0.0430037
0.0553878
0.0654143
0.0749944
0.0209664
0.0366624
0.054206
0.0678405
0.0789746
0.0887052
0.0229854
0.0426826
0.0620601
0.0767729
0.0888534
0.0993412
0.0243563
0.0477897
0.0684533
0.0840875
0.0970268
0.108302
0.0253467
0.0525636
0.073974
0.0904019
0.10414
0.116168
0.0276479
0.0569035
0.078807
0.0959405
0.110423
0.123152
0.0295942
0.0607138
0.0830053
0.100784
0.115952
0.129305
0.0311834
0.0639472
0.0865794
0.104957
0.12074
0.13461
0.0324204
0.0665839
0.0895317
0.108464
0.124781
0.139038
0.0333198
0.0686127
0.0918627
0.111306
0.12807
0.142574
0.0339068
0.0700199
0.0935699
0.113481
0.130606
0.145223
0.0341722
0.0707924
0.094646
0.114985
0.132397
0.147014
0.0340598
0.0709213
0.0950732
0.115812
0.133457
0.147996
0.0335319
0.0704084
0.094829
0.11594
0.133798
0.148232
0.0325787
0.0692117
0.0938698
0.115353
0.133441
0.147801
0.0311945
0.0672821
0.0921329
0.113996
0.132377
0.146775
0.0293759
0.0645449
0.0895239
0.111786
0.130577
0.145215
0.027115
0.0608822
0.0858984
0.10858
0.127956
0.143155
0.0250105
0.0560924
0.0810217
0.104135
0.124327
0.14057
0.0235217
0.0499123
0.0744812
0.0980136
0.119308
0.137306
0.0214734
0.0419127
0.0654366
0.089356
0.112088
0.132907
0.0171879
0.0302519
0.0517282
0.0761777
0.100834
0.126155
0.00427487
0.0113136
0.0288773
0.0541645
0.0818833
0.114575
0.114231
0.12281
0.114772
0.0974223
0.0816648
0.0691768
0.060164
0.0540952
0.0501823
0.0476976
0.046087
0.0449784
0.0441476
0.0434706
0.0428952
0.042427
0.0421258
0.0421045
0.0423593
0.0430552
0.04436
0.0462378
0.0487506
0.0518965
0.111344
0.127047
0.122515
0.108624
0.0925608
0.0793972
0.0695458
0.0625509
0.0577722
0.0545787
0.0524562
0.0510269
0.0500161
0.0492345
0.0485758
0.0480005
0.0475281
0.0472413
0.0472783
0.047611
0.0484677
0.0500077
0.052289
0.0555253
0.113075
0.137535
0.139643
0.132244
0.115605
0.0984389
0.0851001
0.0752572
0.0682982
0.0635052
0.0603603
0.058331
0.0569468
0.0559344
0.055144
0.0544777
0.0538857
0.0533863
0.0530787
0.0531268
0.0534851
0.0544007
0.0561823
0.0593011
0.118202
0.143682
0.157632
0.157935
0.151213
0.136321
0.119235
0.103649
0.0914447
0.0825751
0.0760654
0.0713161
0.0678907
0.0653998
0.0636114
0.062362
0.0613994
0.0606128
0.0599795
0.0595639
0.0595609
0.0598907
0.0608922
0.0634154
0.124787
0.148366
0.168293
0.179772
0.182312
0.178498
0.168936
0.155679
0.14096
0.126456
0.113257
0.102027
0.0932911
0.0864675
0.0811237
0.0768723
0.0735536
0.0710186
0.0691483
0.0678023
0.0669045
0.0665935
0.0668572
0.0683398
0.131763
0.153557
0.175352
0.193235
0.205189
0.211318
0.21131
0.208016
0.200422
0.189715
0.177211
0.163499
0.149145
0.135208
0.1223
0.110878
0.101285
0.0935936
0.0874589
0.0826478
0.0790161
0.0764496
0.0749502
0.0751792
0.138553
0.159091
0.18097
0.201648
0.21905
0.232327
0.241044
0.245721
0.245944
0.243445
0.237542
0.228417
0.216868
0.203338
0.188393
0.172692
0.156903
0.141627
0.127616
0.11541
0.105268
0.0971874
0.090887
0.0873728
0.144777
0.164386
0.185608
0.206908
0.22664
0.243696
0.257442
0.267715
0.27439
0.27768
0.277503
0.274808
0.268865
0.259882
0.248445
0.234844
0.219453
0.202771
0.185429
0.168119
0.151572
0.136389
0.123206
0.112418
0.150177
0.168947
0.189082
0.209713
0.229589
0.247729
0.263416
0.276259
0.286062
0.292812
0.296566
0.297407
0.2958
0.291673
0.284662
0.275377
0.263983
0.250623
0.235461
0.218862
0.201352
0.183456
0.166383
0.15099
0.154598
0.172446
0.191142
0.210246
0.228904
0.246258
0.261668
0.274727
0.2852
0.292996
0.298126
0.300689
0.300846
0.298983
0.294811
0.288518
0.280478
0.270878
0.259874
0.24743
0.233665
0.218736
0.203534
0.190225
0.157964
0.174719
0.191646
0.208656
0.225128
0.240412
0.253991
0.265523
0.274825
0.281856
0.286679
0.289425
0.29028
0.289476
0.287098
0.283126
0.277752
0.271
0.262936
0.253756
0.243767
0.23371
0.224518
0.217437
0.160267
0.175734
0.190654
0.205146
0.218837
0.231263
0.242062
0.251014
0.258041
0.263196
0.266625
0.268482
0.269026
0.268474
0.26694
0.264522
0.261306
0.25734
0.252662
0.247338
0.241563
0.235745
0.230775
0.226888
0.16156
0.175586
0.188324
0.200085
0.210703
0.21991
0.227513
0.233447
0.237783
0.240706
0.242453
0.243246
0.243401
0.243111
0.242471
0.241537
0.240335
0.238851
0.237051
0.234918
0.23252
0.230066
0.227693
0.22445
0.161934
0.174435
0.184951
0.19397
0.201516
0.207525
0.21198
0.215
0.216845
0.217809
0.21824
0.218441
0.218705
0.21918
0.219861
0.220684
0.221603
0.222526
0.223317
0.223816
0.223879
0.223391
0.222122
0.219632
0.161531
0.172514
0.180916
0.187393
0.192148
0.195332
0.197083
0.197706
0.197674
0.197333
0.197065
0.197187
0.198048
0.199757
0.202134
0.204764
0.207591
0.210506
0.213363
0.215997
0.218197
0.219631
0.219887
0.219633
0.160502
0.170097
0.176659
0.181008
0.183494
0.18445
0.184304
0.183391
0.182258
0.181412
0.181335
0.182332
0.184213
0.186706
0.189809
0.193235
0.196415
0.199477
0.202352
0.204975
0.207226
0.208907
0.21012
0.212614
0.159017
0.167486
0.172653
0.175434
0.17645
0.176187
0.175099
0.173783
0.173012
0.173201
0.174581
0.176805
0.179349
0.181567
0.182881
0.184194
0.184972
0.18519
0.18498
0.184426
0.183482
0.182085
0.181073
0.18289
0.157255
0.165001
0.16935
0.171406
0.171972
0.171566
0.170785
0.170409
0.170937
0.172624
0.17526
0.1782
0.180581
0.181653
0.180844
0.17781
0.173826
0.169309
0.164562
0.159783
0.15496
0.149531
0.144118
0.144162
0.155399
0.162964
0.167287
0.169632
0.17084
0.171523
0.172309
0.173907
0.176611
0.180277
0.184181
0.187239
0.18839
0.187074
0.182164
0.174334
0.165534
0.156565
0.148127
0.140611
0.134123
0.128477
0.125408
0.126475
0.153652
0.161795
0.167025
0.17067
0.173628
0.176587
0.180142
0.184579
0.189812
0.195141
0.199371
0.201248
0.200168
0.194235
0.183741
0.171792
0.159161
0.147307
0.137148
0.129035
0.122978
0.119291
0.118493
0.120603
0.152272
0.161995
0.169085
0.17509
0.180971
0.187242
0.194147
0.201537
0.208694
0.214368
0.217108
0.216254
0.209467
0.197013
0.182685
0.166895
0.151755
0.138877
0.128936
0.121874
0.11738
0.115767
0.116451
0.119521
0.151683
0.1642
0.174334
0.183768
0.193362
0.203355
0.213492
0.222948
0.230383
0.234219
0.233253
0.22559
0.211957
0.195326
0.1765
0.158124
0.142366
0.130353
0.122047
0.116848
0.114375
0.114474
0.116082
0.120255
0.152763
0.169604
0.183796
0.197316
0.210923
0.224326
0.236544
0.246064
0.251164
0.249853
0.241492
0.226747
0.207571
0.185736
0.16434
0.145995
0.132006
0.122365
0.116237
0.113038
0.112516
0.113437
0.116207
0.120815
0.157298
0.179582
0.198246
0.216008
0.233159
0.248592
0.260532
0.267039
0.265403
0.256728
0.240495
0.218452
0.193576
0.169407
0.148872
0.133326
0.122533
0.115498
0.111351
0.109753
0.110092
0.11183
0.115584
0.120178
)
;

boundaryField
{
    rotor
    {
        type            kqRWallFunction;
        value           nonuniform List<scalar> 
144
(
0.00392101
0.00911304
0.0232234
0.0471672
0.0797457
0.117805
0.00392101
0.0163405
0.0206526
0.0228951
0.0243929
0.0252659
0.0268817
0.0282435
0.0292707
0.0299462
0.0302608
0.0302304
0.0298419
0.0291482
0.0282542
0.0271459
0.0258416
0.0249634
0.0244663
0.0235187
0.0220391
0.0200459
0.016181
0.00415049
0.00415049
0.00901339
0.015536
0.0209682
0.0284901
0.0780925
0.00605991
0.0366416
0.0788367
0.127164
0.15356
0.197208
0.00605991
0.0208658
0.0301477
0.0378559
0.0445141
0.0501088
0.0546635
0.0582315
0.0608807
0.0626804
0.063696
0.0639772
0.0636021
0.0626238
0.0609749
0.0586076
0.055486
0.0515731
0.046828
0.0412155
0.0347209
0.0273891
0.0186031
0.00472345
0.00472345
0.0257314
0.0592403
0.107705
0.151974
0.159811
0.00606613
0.00983543
0.0171809
0.0235224
0.0351092
0.118296
0.00606613
0.0189828
0.0226544
0.0251727
0.0295686
0.0328599
0.0354994
0.0376796
0.0394887
0.0409697
0.0420143
0.0425829
0.0426546
0.0422996
0.0415013
0.0402962
0.0386945
0.0366709
0.0341613
0.0310532
0.0271847
0.0248623
0.0202827
0.00605229
0.00605229
0.0240569
0.0540141
0.0837181
0.114933
0.11705
0.00430336
0.0104367
0.0209117
0.0322004
0.041946
0.0525343
0.00430336
0.0169475
0.0209664
0.0229854
0.0243563
0.0253467
0.0276479
0.0295942
0.0311834
0.0324204
0.0333198
0.0339068
0.0341722
0.0340598
0.0335319
0.0325787
0.0311945
0.0293759
0.027115
0.0250105
0.0235217
0.0214734
0.0171879
0.00427487
0.00427487
0.0113136
0.0288773
0.0541645
0.0818833
0.114575
)
;
    }