/*--------------------------------*- C++ -*----------------------------------*\
  =========                 |
  \\      /  F ield         | OpenFOAM: The Open Source CFD Toolbox
   \\    /   O peration     | Website:  https://openfoam.org
    \\  /    A nd           | Version:  11
     \\/     M anipulation  |
\*---------------------------------------------------------------------------*/
FoamFile
{
    format      ascii;
    class       surfaceScalarField;
    location    "0.6";
    object      meshPhi;
}
// * * * * * * * * * * * * * * * * * * * * * * * * * * * * * * * * * * * * * //

dimensions      [0 3 -1 0 0 0 0];

internalField   nonuniform List<scalar> 
5640
(
1.36923e-16
9.81747e-07
2.4202e-16
1.37445e-06
3.76877e-16
1.76715e-06
-1.33945e-15
2.15984e-06
-3.68163e-15
2.55254e-06
2.94524e-06
5.95098e-15
1.82567e-18
9.81747e-07
-3.88863e-16
1.37445e-06
-2.60426e-15
1.76715e-06
1.94366e-15
2.15984e-06
8.06616e-15
2.55254e-06
2.94524e-06
-9.02982e-15
-1.16476e-16
9.81747e-07
1.86328e-16
1.37445e-06
-1.56239e-15
1.76715e-06
-4.21257e-15
2.15984e-06
-7.49847e-15
2.55254e-06
2.94524e-06
7.7215e-16
8.6942e-17
9.81747e-07
-1.01949e-16
1.37445e-06
2.69317e-15
1.76715e-06
7.44265e-15
2.15984e-06
3.25971e-15
2.55254e-06
2.94524e-06
-2.79797e-15
-4.8364e-17
9.81747e-07
3.94659e-17
1.37445e-06
1.94313e-16
1.76715e-06
-1.80625e-15
2.15984e-06
-4.20871e-15
2.55254e-06
2.94524e-06
5.01337e-15
-1.8011e-16
9.81747e-07
4.31646e-18
1.37445e-06
-1.84784e-15
1.76715e-06
-3.88625e-15
2.15984e-06
3.15695e-15
2.55254e-06
2.94524e-06
4.98019e-16
2.53944e-16
9.81747e-07
2.55452e-16
1.37445e-06
2.06599e-15
1.76715e-06
4.50406e-15
2.15984e-06
-2.31005e-15
2.55254e-06
2.94524e-06
5.4072e-16
2.16384e-17
9.81747e-07
-3.21709e-16
1.37445e-06
-1.14891e-15
1.76715e-06
-5.28568e-15
2.15984e-06
-3.76929e-16
2.55254e-06
2.94524e-06
-5.63999e-15
-1.43452e-16
9.81747e-07
1.664e-16
1.37445e-06
4.19108e-15
1.76715e-06
6.34935e-15
2.15984e-06
-8.05706e-16
2.55254e-06
2.94524e-06
8.39009e-16
-6.88347e-17
9.81747e-07
-9.20726e-17
1.37445e-06
-2.76945e-15
1.76715e-06
-3.6882e-16
2.15984e-06
-1.45106e-15
2.55254e-06
2.94524e-06
-1.76775e-16
1.66327e-16
9.81747e-07
-8.87133e-17
1.37445e-06
5.69631e-16
1.76715e-06
-2.10355e-15
2.15984e-06
9.65988e-15
2.55254e-06
2.94524e-06
5.29015e-15
-1.77806e-16
9.81747e-07
-2.0547e-17
1.37445e-06
-3.45535e-16
1.76715e-06
-4.17276e-15
2.15984e-06
-2.62241e-15
2.55254e-06
2.94524e-06
5.36919e-15
1.7778e-16
9.81747e-07
2.04846e-17
1.37445e-06
3.45311e-16
1.76715e-06
4.1726e-15
2.15984e-06
2.62222e-15
2.55254e-06
2.94524e-06
-5.36978e-15
-1.66357e-16
9.81747e-07
8.86449e-17
1.37445e-06
-5.69734e-16
1.76715e-06
2.1034e-15
2.15984e-06
-9.66005e-15
2.55254e-06
2.94524e-06
-5.29023e-15
6.8778e-17
9.81747e-07
9.2034e-17
1.37445e-06
2.76937e-15
1.76715e-06
3.68729e-16
2.15984e-06
1.45082e-15
2.55254e-06
2.94524e-06
1.7674e-16
1.43386e-16
9.81747e-07
-1.66425e-16
1.37445e-06
-4.19123e-15
1.76715e-06
-6.34955e-15
2.15984e-06
8.05543e-16
2.55254e-06
2.94524e-06
-8.3943e-16
-2.16621e-17
9.81747e-07
3.21616e-16
1.37445e-06
1.14879e-15
1.76715e-06
5.28555e-15
2.15984e-06
3.76773e-16
2.55254e-06
2.94524e-06
5.63983e-15
-2.53951e-16
9.81747e-07
-2.55514e-16
1.37445e-06
-2.06606e-15
1.76715e-06
-4.50419e-15
2.15984e-06
2.30999e-15
2.55254e-06
2.94524e-06
-5.40964e-16
1.80109e-16
9.81747e-07
-4.32688e-18
1.37445e-06
1.84766e-15
1.76715e-06
3.88605e-15
2.15984e-06
-3.15728e-15
2.55254e-06
2.94524e-06
-4.98153e-16
4.83761e-17
9.81747e-07
-3.95409e-17
1.37445e-06
-1.94349e-16
1.76715e-06
1.80601e-15
2.15984e-06
4.20842e-15
2.55254e-06
2.94524e-06
-5.01326e-15
-8.69724e-17
9.81747e-07
1.01908e-16
1.37445e-06
-2.69322e-15
1.76715e-06
-7.44289e-15
2.15984e-06
-3.2598e-15
2.55254e-06
2.94524e-06
2.79795e-15
1.16444e-16
9.81747e-07
-1.86392e-16
1.37445e-06
1.56225e-15
1.76715e-06
4.21244e-15
2.15984e-06
7.49838e-15
2.55254e-06
2.94524e-06
-7.72323e-16
-1.85283e-18
9.81747e-07
3.88756e-16
1.37445e-06
2.60412e-15
1.76715e-06
-1.94371e-15
2.15984e-06
-8.06627e-15
2.55254e-06
2.94524e-06
9.02983e-15
-1.36967e-16
-2.42092e-16
-3.77005e-16
1.33921e-15
3.68144e-15
-5.95152e-15
-1.13363e-14
4.53785e-06
-4.53785e-06
-4.81561e-16
5.23599e-06
-5.23599e-06
-5.35793e-15
5.93412e-06
-5.93412e-06
-1.13039e-14
6.63225e-06
-6.63225e-06
4.86864e-15
7.33038e-06
-7.33038e-06
-1.11046e-15
8.02851e-06
-8.02851e-06
-8.15875e-15
8.72664e-06
-8.72664e-06
1.3044e-14
9.42478e-06
-9.42478e-06
5.94915e-15
1.01229e-05
-1.01229e-05
-1.99743e-15
1.0821e-05
-1.0821e-05
2.43867e-14
1.15192e-05
-1.15192e-05
1.61874e-14
1.22173e-05
-1.22173e-05
-3.2786e-14
1.29154e-05
-1.29154e-05
-3.05363e-15
1.36136e-05
-1.36136e-05
-1.44431e-14
1.43117e-05
-1.43117e-05
-2.69021e-14
1.50098e-05
-1.50098e-05
7.73743e-15
1.5708e-05
-1.5708e-05
-4.44111e-15
1.64061e-05
-1.64061e-05
-1.80024e-14
1.71042e-05
-1.71042e-05
2.18198e-14
1.78024e-05
-1.78024e-05
8.21122e-15
1.85005e-05
-1.85005e-05
-6.08188e-15
1.91986e-05
-1.91986e-05
3.89189e-14
1.98967e-05
-1.98967e-05
2.05949e-05
-2.05949e-05
9.39857e-15
4.53785e-06
5.20059e-16
5.23599e-06
7.52825e-15
5.93412e-06
-4.41233e-15
6.63225e-06
3.7834e-15
7.33038e-06
1.3384e-14
8.02851e-06
-2.1103e-15
8.72664e-06
8.5283e-15
9.42478e-06
-1.00274e-14
1.01229e-05
1.86633e-15
1.0821e-05
-2.02022e-14
1.15192e-05
-7.01329e-15
1.22173e-05
7.51058e-15
1.29154e-05
2.36066e-14
1.36136e-05
-2.0446e-15
1.43117e-05
1.48304e-14
1.50098e-05
-1.38802e-14
1.5708e-05
2.38765e-15
1.64061e-05
2.04075e-14
1.71042e-05
-7.01898e-15
1.78024e-05
1.20662e-14
1.85005e-05
-2.59386e-14
1.91986e-05
1.84619e-15
1.98967e-05
2.05949e-05
-8.67621e-15
4.53785e-06
1.2292e-14
5.23599e-06
1.88323e-15
5.93412e-06
8.9017e-15
6.63225e-06
-5.10879e-15
7.33038e-06
-2.19911e-14
8.02851e-06
1.22643e-14
8.72664e-06
-5.3742e-15
9.42478e-06
4.45645e-15
1.01229e-05
-1.4306e-14
1.0821e-05
-7.32674e-15
1.15192e-05
7.04007e-15
1.22173e-05
2.39929e-14
1.29154e-05
-7.55455e-15
1.36136e-05
9.79809e-15
1.43117e-05
-1.6239e-14
1.50098e-05
4.02931e-14
1.5708e-05
1.44423e-14
1.64061e-05
-1.37057e-14
1.71042e-05
-7.89754e-15
1.78024e-05
-3.92515e-14
1.85005e-05
4.27507e-14
1.91986e-05
-8.85298e-15
1.98967e-05
2.05949e-05
5.98589e-15
4.53785e-06
2.19009e-16
5.23599e-06
-6.43582e-15
5.93412e-06
6.06364e-15
6.63225e-06
-2.09294e-15
7.33038e-06
1.61758e-14
8.02851e-06
-1.88317e-14
8.72664e-06
-2.35095e-15
9.42478e-06
9.17076e-15
1.01229e-05
-4.71191e-15
1.0821e-05
2.16285e-14
1.15192e-05
-2.96457e-14
1.22173e-05
-9.29121e-15
1.29154e-05
-1.89071e-14
1.36136e-05
4.46567e-15
1.43117e-05
3.01532e-14
1.50098e-05
-2.62186e-14
1.5708e-05
4.32258e-16
1.64061e-05
-2.11742e-14
1.71042e-05
1.87123e-14
1.78024e-05
-3.9203e-15
1.85005e-05
-2.9161e-14
1.91986e-05
1.52272e-14
1.98967e-05
2.05949e-05
6.7151e-15
4.53785e-06
-7.30706e-15
5.23599e-06
1.11005e-14
5.93412e-06
-4.24142e-15
6.63225e-06
1.51018e-14
7.33038e-06
-5.20997e-15
8.02851e-06
1.70133e-14
8.72664e-06
-3.94107e-15
9.42478e-06
-2.95632e-16
1.01229e-05
6.60933e-15
1.0821e-05
1.37051e-14
1.15192e-05
1.01832e-14
1.22173e-05
1.8217e-14
1.29154e-05
1.43675e-14
1.36136e-05
2.33397e-14
1.43117e-05
-2.53466e-14
1.50098e-05
2.90725e-14
1.5708e-05
-7.82954e-15
1.64061e-05
3.54155e-14
1.71042e-05
-4.51525e-15
1.78024e-05
4.23725e-14
1.85005e-05
-5.87522e-16
1.91986e-05
-8.73519e-15
1.98967e-05
2.05949e-05
-4.63065e-15
4.53785e-06
5.79727e-15
5.23599e-06
-1.61508e-14
5.93412e-06
-5.97477e-15
6.63225e-06
-8.55562e-15
7.33038e-06
4.22408e-15
8.02851e-06
-8.18689e-15
8.72664e-06
6.9988e-15
9.42478e-06
-2.42302e-14
1.01229e-05
-7.77126e-15
1.0821e-05
-2.27656e-14
1.15192e-05
8.34806e-15
1.22173e-05
-7.40407e-15
1.29154e-05
2.82645e-14
1.36136e-05
-4.57104e-14
1.43117e-05
-8.22309e-15
1.50098e-05
-2.82258e-14
1.5708e-05
-2.33985e-15
1.64061e-05
-6.94627e-15
1.71042e-05
2.21486e-14
1.78024e-05
-3.4111e-14
1.85005e-05
-3.7396e-15
1.91986e-05
-3.2351e-14
1.98967e-05
2.05949e-05
-8.92546e-15
4.53785e-06
-2.28908e-15
5.23599e-06
-2.22471e-15
5.93412e-06
6.61619e-15
6.63225e-06
-3.38901e-15
7.33038e-06
-3.90698e-15
8.02851e-06
-6.41902e-15
8.72664e-06
-7.15908e-15
9.42478e-06
6.80874e-15
1.01229e-05
6.98256e-15
1.0821e-05
-9.06423e-15
1.15192e-05
6.75908e-15
1.22173e-05
-2.88897e-14
1.29154e-05
-1.22354e-14
1.36136e-05
4.80312e-15
1.43117e-05
2.50215e-14
1.50098e-05
3.8619e-15
1.5708e-05
3.60635e-15
1.64061e-05
-2.04852e-14
1.71042e-05
-2.17637e-14
1.78024e-05
3.46457e-15
1.85005e-05
2.90382e-14
1.91986e-05
-1.6636e-15
1.98967e-05
2.05949e-05
6.21562e-15
4.53785e-06
-3.87929e-15
5.23599e-06
1.54218e-14
5.93412e-06
-7.06571e-15
6.63225e-06
-2.21136e-15
7.33038e-06
1.42898e-15
8.02851e-06
-5.49341e-15
8.72664e-06
1.32253e-14
9.42478e-06
6.04518e-15
1.01229e-05
-1.74506e-14
1.0821e-05
2.08876e-14
1.15192e-05
-2.14455e-14
1.22173e-05
1.91318e-14
1.29154e-05
-7.31784e-15
1.36136e-05
3.84878e-14
1.43117e-05
-1.29246e-14
1.50098e-05
-1.88363e-15
1.5708e-05
5.71594e-15
1.64061e-05
-7.58755e-15
1.71042e-05
2.76548e-14
1.78024e-05
1.40912e-14
1.85005e-05
-5.31448e-14
1.91986e-05
3.9086e-14
1.98967e-05
2.05949e-05
-1.4988e-15
4.53785e-06
1.08971e-14
5.23599e-06
-6.59957e-15
5.93412e-06
7.26594e-15
6.63225e-06
6.17479e-15
7.33038e-06
2.48827e-15
8.02851e-06
-9.65611e-16
8.72664e-06
-4.36567e-15
9.42478e-06
-8.90175e-15
1.01229e-05
1.38635e-14
1.0821e-05
1.06912e-14
1.15192e-05
6.24989e-15
1.22173e-05
-1.28541e-16
1.29154e-05
-3.44125e-15
1.36136e-05
-1.10438e-14
1.43117e-05
-1.77665e-14
1.50098e-05
1.76781e-14
1.5708e-05
9.95309e-15
1.64061e-05
3.32954e-15
1.71042e-05
-3.29692e-14
1.78024e-05
-1.04231e-14
1.85005e-05
3.00619e-14
1.91986e-05
-5.99957e-14
1.98967e-05
2.05949e-05
5.17021e-15
4.53785e-06
-7.45577e-15
5.23599e-06
-7.56615e-16
5.93412e-06
6.8395e-15
6.63225e-06
-9.97436e-15
7.33038e-06
-1.66523e-15
8.02851e-06
9.21864e-15
8.72664e-06
-1.34595e-14
9.42478e-06
2.32222e-14
1.01229e-05
1.0472e-14
1.0821e-05
-1.7273e-14
1.15192e-05
-3.02646e-15
1.22173e-05
1.13972e-14
1.29154e-05
-1.98185e-14
1.36136e-05
-4.67901e-15
1.43117e-05
5.03042e-14
1.50098e-05
-2.40474e-14
1.5708e-05
-6.66093e-15
1.64061e-05
1.42591e-14
1.71042e-05
1.64821e-15
1.78024e-05
-6.814e-15
1.85005e-05
1.44421e-14
1.91986e-05
5.07545e-14
1.98967e-05
2.05949e-05
-6.19719e-15
4.53785e-06
2.85574e-17
5.23599e-06
1.15114e-14
5.93412e-06
-2.06262e-14
6.63225e-06
5.36663e-15
7.33038e-06
1.2211e-15
8.02851e-06
-4.83696e-17
8.72664e-06
1.23933e-14
9.42478e-06
-1.32269e-14
1.01229e-05
-1.88951e-14
1.0821e-05
-4.96428e-15
1.15192e-05
-7.15424e-15
1.22173e-05
-1.48871e-14
1.29154e-05
3.53396e-14
1.36136e-05
-3.30846e-18
1.43117e-05
-4.31409e-14
1.50098e-05
1.35619e-14
1.5708e-05
-2.82582e-14
1.64061e-05
2.45408e-15
1.71042e-05
-1.02427e-14
1.78024e-05
2.38017e-14
1.85005e-05
1.38772e-14
1.91986e-05
-4.55665e-14
1.98967e-05
2.05949e-05
-1.90701e-15
4.53785e-06
1.1306e-15
5.23599e-06
-2.1662e-14
5.93412e-06
9.62357e-15
6.63225e-06
1.51369e-14
7.33038e-06
-1.40655e-14
8.02851e-06
8.09138e-15
8.72664e-06
-2.69608e-14
9.42478e-06
-1.96845e-15
1.01229e-05
2.97157e-14
1.0821e-05
-1.17451e-14
1.15192e-05
1.98672e-14
1.22173e-05
-2.74451e-14
1.29154e-05
-2.06176e-14
1.36136e-05
1.60398e-14
1.43117e-05
-4.61536e-15
1.50098e-05
4.69141e-15
1.5708e-05
4.79681e-14
1.64061e-05
-1.37404e-14
1.71042e-05
3.23655e-14
1.78024e-05
-3.51867e-14
1.85005e-05
-2.49057e-14
1.91986e-05
7.19095e-14
1.98967e-05
2.05949e-05
1.90647e-15
4.53785e-06
-1.13067e-15
5.23599e-06
2.16614e-14
5.93412e-06
-9.62477e-15
6.63225e-06
-1.51374e-14
7.33038e-06
1.40651e-14
8.02851e-06
-8.09392e-15
8.72664e-06
2.69588e-14
9.42478e-06
1.96392e-15
1.01229e-05
-2.97189e-14
1.0821e-05
1.17453e-14
1.15192e-05
-1.98675e-14
1.22173e-05
2.74443e-14
1.29154e-05
2.06143e-14
1.36136e-05
-1.60432e-14
1.43117e-05
4.6122e-15
1.50098e-05
-4.69282e-15
1.5708e-05
-4.79691e-14
1.64061e-05
1.374e-14
1.71042e-05
-3.23757e-14
1.78024e-05
3.51848e-14
1.85005e-05
2.49065e-14
1.91986e-05
-7.19205e-14
1.98967e-05
2.05949e-05
6.19731e-15
4.53785e-06
-2.8804e-17
5.23599e-06
-1.1512e-14
5.93412e-06
2.06257e-14
6.63225e-06
-5.3677e-15
7.33038e-06
-1.2216e-15
8.02851e-06
4.58297e-17
8.72664e-06
-1.23943e-14
9.42478e-06
1.32256e-14
1.01229e-05
1.8894e-14
1.0821e-05
4.96345e-15
1.15192e-05
7.15394e-15
1.22173e-05
1.48878e-14
1.29154e-05
-3.53405e-14
1.36136e-05
-2.92872e-18
1.43117e-05
4.31359e-14
1.50098e-05
-1.35648e-14
1.5708e-05
2.82543e-14
1.64061e-05
-2.45565e-15
1.71042e-05
1.02377e-14
1.78024e-05
-2.3808e-14
1.85005e-05
-1.38799e-14
1.91986e-05
4.55607e-14
1.98967e-05
2.05949e-05
-5.17035e-15
4.53785e-06
7.45485e-15
5.23599e-06
7.5671e-16
5.93412e-06
-6.84e-15
6.63225e-06
9.97402e-15
7.33038e-06
1.66472e-15
8.02851e-06
-9.2198e-15
8.72664e-06
1.34589e-14
9.42478e-06
-2.32222e-14
1.01229e-05
-1.04743e-14
1.0821e-05
1.72716e-14
1.15192e-05
3.02684e-15
1.22173e-05
-1.13999e-14
1.29154e-05
1.98152e-14
1.36136e-05
4.67466e-15
1.43117e-05
-5.03094e-14
1.50098e-05
2.40408e-14
1.5708e-05
6.65888e-15
1.64061e-05
-1.42667e-14
1.71042e-05
-1.64965e-15
1.78024e-05
6.8103e-15
1.85005e-05
-1.44429e-14
1.91986e-05
-5.07614e-14
1.98967e-05
2.05949e-05
1.49856e-15
4.53785e-06
-1.08974e-14
5.23599e-06
6.5994e-15
5.93412e-06
-7.26589e-15
6.63225e-06
-6.17499e-15
7.33038e-06
-2.48883e-15
8.02851e-06
9.63937e-16
8.72664e-06
4.36393e-15
9.42478e-06
8.89966e-15
1.01229e-05
-1.38659e-14
1.0821e-05
-1.06919e-14
1.15192e-05
-6.25063e-15
1.22173e-05
1.25878e-16
1.29154e-05
3.43756e-15
1.36136e-05
1.10426e-14
1.43117e-05
1.77637e-14
1.50098e-05
-1.7685e-14
1.5708e-05
-9.95533e-15
1.64061e-05
-3.33252e-15
1.71042e-05
3.29646e-14
1.78024e-05
1.04182e-14
1.85005e-05
-3.0069e-14
1.91986e-05
5.99919e-14
1.98967e-05
2.05949e-05
-6.21594e-15
4.53785e-06
3.8787e-15
5.23599e-06
-1.54222e-14
5.93412e-06
7.06491e-15
6.63225e-06
2.21018e-15
7.33038e-06
-1.42949e-15
8.02851e-06
5.49169e-15
8.72664e-06
-1.3226e-14
9.42478e-06
-6.04728e-15
1.01229e-05
1.7449e-14
1.0821e-05
-2.08887e-14
1.15192e-05
2.14446e-14
1.22173e-05
-1.91373e-14
1.29154e-05
7.313e-15
1.36136e-05
-3.84875e-14
1.43117e-05
1.29189e-14
1.50098e-05
1.87959e-15
1.5708e-05
-5.71796e-15
1.64061e-05
7.58345e-15
1.71042e-05
-2.76657e-14
1.78024e-05
-1.41015e-14
1.85005e-05
5.31393e-14
1.91986e-05
-3.90875e-14
1.98967e-05
2.05949e-05
8.9248e-15
4.53785e-06
2.28862e-15
5.23599e-06
2.22384e-15
5.93412e-06
-6.61718e-15
6.63225e-06
3.38714e-15
7.33038e-06
3.90702e-15
8.02851e-06
6.41839e-15
8.72664e-06
7.15803e-15
9.42478e-06
-6.81116e-15
1.01229e-05
-6.98388e-15
1.0821e-05
9.06395e-15
1.15192e-05
-6.76028e-15
1.22173e-05
2.88882e-14
1.29154e-05
1.22317e-14
1.36136e-05
-4.8075e-15
1.43117e-05
-2.50303e-14
1.50098e-05
-3.8623e-15
1.5708e-05
-3.60937e-15
1.64061e-05
2.04822e-14
1.71042e-05
2.17559e-14
1.78024e-05
-3.47243e-15
1.85005e-05
-2.90436e-14
1.91986e-05
1.66017e-15
1.98967e-05
2.05949e-05
4.63039e-15
4.53785e-06
-5.79795e-15
5.23599e-06
1.61504e-14
5.93412e-06
5.97351e-15
6.63225e-06
8.55454e-15
7.33038e-06
-4.22452e-15
8.02851e-06
8.18721e-15
8.72664e-06
-6.99877e-15
9.42478e-06
2.42291e-14
1.01229e-05
7.76817e-15
1.0821e-05
2.27629e-14
1.15192e-05
-8.34878e-15
1.22173e-05
7.40187e-15
1.29154e-05
-2.8268e-14
1.36136e-05
4.57081e-14
1.43117e-05
8.21983e-15
1.50098e-05
2.82229e-14
1.5708e-05
2.33726e-15
1.64061e-05
6.94105e-15
1.71042e-05
-2.21528e-14
1.78024e-05
3.41091e-14
1.85005e-05
3.73646e-15
1.91986e-05
3.23418e-14
1.98967e-05
2.05949e-05
-6.71548e-15
4.53785e-06
7.30644e-15
5.23599e-06
-1.11011e-14
5.93412e-06
4.2407e-15
6.63225e-06
-1.51023e-14
7.33038e-06
5.20771e-15
8.02851e-06
-1.70136e-14
8.72664e-06
3.93996e-15
9.42478e-06
2.9331e-16
1.01229e-05
-6.61194e-15
1.0821e-05
-1.37076e-14
1.15192e-05
-1.01854e-14
1.22173e-05
-1.82195e-14
1.29154e-05
-1.43714e-14
1.36136e-05
-2.33448e-14
1.43117e-05
2.5341e-14
1.50098e-05
-2.9076e-14
1.5708e-05
7.82452e-15
1.64061e-05
-3.54201e-14
1.71042e-05
4.50883e-15
1.78024e-05
-4.23717e-14
1.85005e-05
5.83052e-16
1.91986e-05
8.73047e-15
1.98967e-05
2.05949e-05
-5.98602e-15
4.53785e-06
-2.19019e-16
5.23599e-06
6.43536e-15
5.93412e-06
-6.0648e-15
6.63225e-06
2.09196e-15
7.33038e-06
-1.61776e-14
8.02851e-06
1.88297e-14
8.72664e-06
2.34959e-15
9.42478e-06
-9.17281e-15
1.01229e-05
4.71028e-15
1.0821e-05
-2.16294e-14
1.15192e-05
2.96445e-14
1.22173e-05
9.28857e-15
1.29154e-05
1.89048e-14
1.36136e-05
-4.46838e-15
1.43117e-05
-3.01582e-14
1.50098e-05
2.62147e-14
1.5708e-05
-4.42094e-16
1.64061e-05
2.1168e-14
1.71042e-05
-1.87164e-14
1.78024e-05
3.91574e-15
1.85005e-05
2.91567e-14
1.91986e-05
-1.52347e-14
1.98967e-05
2.05949e-05
8.67583e-15
4.53785e-06
-1.22925e-14
5.23599e-06
-1.88319e-15
5.93412e-06
-8.9031e-15
6.63225e-06
5.1078e-15
7.33038e-06
2.19902e-14
8.02851e-06
-1.22662e-14
8.72664e-06
5.37352e-15
9.42478e-06
-4.45756e-15
1.01229e-05
1.43053e-14
1.0821e-05
7.32455e-15
1.15192e-05
-7.04238e-15
1.22173e-05
-2.39975e-14
1.29154e-05
7.55174e-15
1.36136e-05
-9.804e-15
1.43117e-05
1.6236e-14
1.50098e-05
-4.02975e-14
1.5708e-05
-1.44498e-14
1.64061e-05
1.37019e-14
1.71042e-05
7.89457e-15
1.78024e-05
3.92453e-14
1.85005e-05
-4.27523e-14
1.91986e-05
8.85321e-15
1.98967e-05
2.05949e-05
-9.39918e-15
4.53785e-06
-5.20531e-16
5.23599e-06
-7.5289e-15
5.93412e-06
4.41149e-15
6.63225e-06
-3.78319e-15
7.33038e-06
-1.33855e-14
8.02851e-06
2.10808e-15
8.72664e-06
-8.52921e-15
9.42478e-06
1.00257e-14
1.01229e-05
-1.86703e-15
1.0821e-05
2.0203e-14
1.15192e-05
7.01072e-15
1.22173e-05
-7.51199e-15
1.29154e-05
-2.36104e-14
1.36136e-05
2.04059e-15
1.43117e-05
-1.48334e-14
1.50098e-05
1.38784e-14
1.5708e-05
-2.39381e-15
1.64061e-05
-2.04163e-14
1.71042e-05
7.01587e-15
1.78024e-05
-1.20689e-14
1.85005e-05
2.59401e-14
1.91986e-05
-1.84579e-15
1.98967e-05
2.05949e-05
1.13359e-14
4.53785e-06
4.80826e-16
5.23599e-06
5.35689e-15
5.93412e-06
1.13033e-14
6.63225e-06
-4.86961e-15
7.33038e-06
1.10847e-15
8.02851e-06
8.15724e-15
8.72664e-06
-1.30453e-14
9.42478e-06
-5.95004e-15
1.01229e-05
1.99533e-15
1.0821e-05
-2.43877e-14
1.15192e-05
-1.61915e-14
1.22173e-05
3.2787e-14
1.29154e-05
3.05014e-15
1.36136e-05
1.44404e-14
1.43117e-05
2.6899e-14
1.50098e-05
-7.74124e-15
1.5708e-05
4.43387e-15
1.64061e-05
1.79994e-14
1.71042e-05
-2.18237e-14
1.78024e-05
-8.21485e-15
1.85005e-05
6.07806e-15
1.91986e-05
-3.89244e-14
1.98967e-05
2.05949e-05
1.36923e-16
9.81747e-07
2.42065e-16
1.37445e-06
3.76896e-16
1.76715e-06
-1.33945e-15
2.15984e-06
-3.68159e-15
2.55254e-06
2.94524e-06
5.95113e-15
1.82567e-18
9.81747e-07
-3.88863e-16
1.37445e-06
-2.60426e-15
1.76715e-06
1.94366e-15
2.15984e-06
8.06616e-15
2.55254e-06
2.94524e-06
-9.02982e-15
-1.16476e-16
9.81747e-07
1.86328e-16
1.37445e-06
-1.56239e-15
1.76715e-06
-4.21257e-15
2.15984e-06
-7.49847e-15
2.55254e-06
2.94524e-06
7.7215e-16
8.6942e-17
9.81747e-07
-1.01949e-16
1.37445e-06
2.69317e-15
1.76715e-06
7.44265e-15
2.15984e-06
3.25971e-15
2.55254e-06
2.94524e-06
-2.79797e-15
-4.8364e-17
9.81747e-07
3.94659e-17
1.37445e-06
1.94313e-16
1.76715e-06
-1.80625e-15
2.15984e-06
-4.20871e-15
2.55254e-06
2.94524e-06
5.01337e-15
-1.8011e-16
9.81747e-07
4.31646e-18
1.37445e-06
-1.84784e-15
1.76715e-06
-3.88625e-15
2.15984e-06
3.15695e-15
2.55254e-06
2.94524e-06
4.98019e-16
2.53944e-16
9.81747e-07
2.55452e-16
1.37445e-06
2.06599e-15
1.76715e-06
4.50406e-15
2.15984e-06
-2.31005e-15
2.55254e-06
2.94524e-06
5.4072e-16
2.16384e-17
9.81747e-07
-3.21709e-16
1.37445e-06
-1.14891e-15
1.76715e-06
-5.28568e-15
2.15984e-06
-3.76929e-16
2.55254e-06
2.94524e-06
-5.63999e-15
-1.43452e-16
9.81747e-07
1.664e-16
1.37445e-06
4.19108e-15
1.76715e-06
6.34935e-15
2.15984e-06
-8.05706e-16
2.55254e-06
2.94524e-06
8.39009e-16
-6.88347e-17
9.81747e-07
-9.20726e-17
1.37445e-06
-2.76945e-15
1.76715e-06
-3.6882e-16
2.15984e-06
-1.45106e-15
2.55254e-06
2.94524e-06
-1.76775e-16
1.66327e-16
9.81747e-07
-8.87133e-17
1.37445e-06
5.69631e-16
1.76715e-06
-2.10355e-15
2.15984e-06
9.65988e-15
2.55254e-06
2.94524e-06
5.29015e-15
-1.77806e-16
9.81747e-07
-2.0547e-17
1.37445e-06
-3.45535e-16
1.76715e-06
-4.17276e-15
2.15984e-06
-2.62241e-15
2.55254e-06
2.94524e-06
5.36919e-15
1.7778e-16
9.81747e-07
2.04846e-17
1.37445e-06
3.45311e-16
1.76715e-06
4.1726e-15
2.15984e-06
2.62222e-15
2.55254e-06
2.94524e-06
-5.36978e-15
-1.66357e-16
9.81747e-07
8.86449e-17
1.37445e-06
-5.69734e-16
1.76715e-06
2.1034e-15
2.15984e-06
-9.66005e-15
2.55254e-06
2.94524e-06
-5.29023e-15
6.8778e-17
9.81747e-07
9.2034e-17
1.37445e-06
2.76937e-15
1.76715e-06
3.68729e-16
2.15984e-06
1.45082e-15
2.55254e-06
2.94524e-06
1.7674e-16
1.43386e-16
9.81747e-07
-1.66425e-16
1.37445e-06
-4.19123e-15
1.76715e-06
-6.34955e-15
2.15984e-06
8.05543e-16
2.55254e-06
2.94524e-06
-8.3943e-16
-2.16621e-17
9.81747e-07
3.21616e-16
1.37445e-06
1.14879e-15
1.76715e-06
5.28555e-15
2.15984e-06
3.76773e-16
2.55254e-06
2.94524e-06
5.63983e-15
-2.53951e-16
9.81747e-07
-2.55514e-16
1.37445e-06
-2.06606e-15
1.76715e-06
-4.50419e-15
2.15984e-06
2.30999e-15
2.55254e-06
2.94524e-06
-5.40964e-16
1.80109e-16
9.81747e-07
-4.32688e-18
1.37445e-06
1.84766e-15
1.76715e-06
3.88605e-15
2.15984e-06
-3.15728e-15
2.55254e-06
2.94524e-06
-4.98153e-16
4.83761e-17
9.81747e-07
-3.95409e-17
1.37445e-06
-1.94349e-16
1.76715e-06
1.80601e-15
2.15984e-06
4.20842e-15
2.55254e-06
2.94524e-06
-5.01326e-15
-8.69724e-17
9.81747e-07
1.01908e-16
1.37445e-06
-2.69322e-15
1.76715e-06
-7.44289e-15
2.15984e-06
-3.2598e-15
2.55254e-06
2.94524e-06
2.79795e-15
1.16444e-16
9.81747e-07
-1.86392e-16
1.37445e-06
1.56225e-15
1.76715e-06
4.21244e-15
2.15984e-06
7.49838e-15
2.55254e-06
2.94524e-06
-7.72323e-16
-1.85283e-18
9.81747e-07
3.88756e-16
1.37445e-06
2.60412e-15
1.76715e-06
-1.94371e-15
2.15984e-06
-8.06627e-15
2.55254e-06
2.94524e-06
9.02983e-15
-1.36968e-16
-2.42102e-16
-3.76991e-16
1.33924e-15
3.68144e-15
-5.95152e-15
-1.13364e-14
4.53785e-06
-4.81561e-16
5.23599e-06
-5.35779e-15
5.93412e-06
-1.13036e-14
6.63225e-06
4.86871e-15
7.33038e-06
-1.1108e-15
8.02851e-06
-8.15882e-15
8.72664e-06
1.30443e-14
9.42478e-06
5.94921e-15
1.01229e-05
-1.99743e-15
1.0821e-05
2.43867e-14
1.15192e-05
1.61874e-14
1.22173e-05
-3.2786e-14
1.29154e-05
-3.05363e-15
1.36136e-05
-1.4443e-14
1.43117e-05
-2.69041e-14
1.50098e-05
7.73995e-15
1.5708e-05
-4.44321e-15
1.64061e-05
-1.80031e-14
1.71042e-05
2.1819e-14
1.78024e-05
8.21144e-15
1.85005e-05
-6.08432e-15
1.91986e-05
3.89166e-14
1.98967e-05
2.05949e-05
9.39857e-15
4.53785e-06
5.20059e-16
5.23599e-06
7.52825e-15
5.93412e-06
-4.41233e-15
6.63225e-06
3.7834e-15
7.33038e-06
1.3384e-14
8.02851e-06
-2.1103e-15
8.72664e-06
8.5283e-15
9.42478e-06
-1.00274e-14
1.01229e-05
1.86633e-15
1.0821e-05
-2.02022e-14
1.15192e-05
-7.01329e-15
1.22173e-05
7.51058e-15
1.29154e-05
2.36066e-14
1.36136e-05
-2.0446e-15
1.43117e-05
1.48304e-14
1.50098e-05
-1.38802e-14
1.5708e-05
2.38765e-15
1.64061e-05
2.04075e-14
1.71042e-05
-7.01898e-15
1.78024e-05
1.20662e-14
1.85005e-05
-2.59386e-14
1.91986e-05
1.84619e-15
1.98967e-05
2.05949e-05
-8.67621e-15
4.53785e-06
1.2292e-14
5.23599e-06
1.88323e-15
5.93412e-06
8.9017e-15
6.63225e-06
-5.10879e-15
7.33038e-06
-2.19911e-14
8.02851e-06
1.22643e-14
8.72664e-06
-5.3742e-15
9.42478e-06
4.45645e-15
1.01229e-05
-1.4306e-14
1.0821e-05
-7.32674e-15
1.15192e-05
7.04007e-15
1.22173e-05
2.39929e-14
1.29154e-05
-7.55455e-15
1.36136e-05
9.79809e-15
1.43117e-05
-1.6239e-14
1.50098e-05
4.02931e-14
1.5708e-05
1.44423e-14
1.64061e-05
-1.37057e-14
1.71042e-05
-7.89754e-15
1.78024e-05
-3.92515e-14
1.85005e-05
4.27507e-14
1.91986e-05
-8.85298e-15
1.98967e-05
2.05949e-05
5.98589e-15
4.53785e-06
2.19009e-16
5.23599e-06
-6.43582e-15
5.93412e-06
6.06364e-15
6.63225e-06
-2.09294e-15
7.33038e-06
1.61758e-14
8.02851e-06
-1.88317e-14
8.72664e-06
-2.35095e-15
9.42478e-06
9.17076e-15
1.01229e-05
-4.71191e-15
1.0821e-05
2.16285e-14
1.15192e-05
-2.96457e-14
1.22173e-05
-9.29121e-15
1.29154e-05
-1.89071e-14
1.36136e-05
4.46567e-15
1.43117e-05
3.01532e-14
1.50098e-05
-2.62186e-14
1.5708e-05
4.32258e-16
1.64061e-05
-2.11742e-14
1.71042e-05
1.87123e-14
1.78024e-05
-3.9203e-15
1.85005e-05
-2.9161e-14
1.91986e-05
1.52272e-14
1.98967e-05
2.05949e-05
6.7151e-15
4.53785e-06
-7.30706e-15
5.23599e-06
1.11005e-14
5.93412e-06
-4.24142e-15
6.63225e-06
1.51018e-14
7.33038e-06
-5.20997e-15
8.02851e-06
1.70133e-14
8.72664e-06
-3.94107e-15
9.42478e-06
-2.95632e-16
1.01229e-05
6.60933e-15
1.0821e-05
1.37051e-14
1.15192e-05
1.01832e-14
1.22173e-05
1.8217e-14
1.29154e-05
1.43675e-14
1.36136e-05
2.33397e-14
1.43117e-05
-2.53466e-14
1.50098e-05
2.90725e-14
1.5708e-05
-7.82954e-15
1.64061e-05
3.54155e-14
1.71042e-05
-4.51525e-15
1.78024e-05
4.23725e-14
1.85005e-05
-5.87522e-16
1.91986e-05
-8.73519e-15
1.98967e-05
2.05949e-05
-4.63065e-15
4.53785e-06
5.79727e-15
5.23599e-06
-1.61508e-14
5.93412e-06
-5.97477e-15
6.63225e-06
-8.55562e-15
7.33038e-06
4.22408e-15
8.02851e-06
-8.18689e-15
8.72664e-06
6.9988e-15
9.42478e-06
-2.42302e-14
1.01229e-05
-7.77126e-15
1.0821e-05
-2.27656e-14
1.15192e-05
8.34806e-15
1.22173e-05
-7.40407e-15
1.29154e-05
2.82645e-14
1.36136e-05
-4.57104e-14
1.43117e-05
-8.22309e-15
1.50098e-05
-2.82258e-14
1.5708e-05
-2.33985e-15
1.64061e-05
-6.94627e-15
1.71042e-05
2.21486e-14
1.78024e-05
-3.4111e-14
1.85005e-05
-3.7396e-15
1.91986e-05
-3.2351e-14
1.98967e-05
2.05949e-05
-8.92546e-15
4.53785e-06
-2.28908e-15
5.23599e-06
-2.22471e-15
5.93412e-06
6.61619e-15
6.63225e-06
-3.38901e-15
7.33038e-06
-3.90698e-15
8.02851e-06
-6.41902e-15
8.72664e-06
-7.15908e-15
9.42478e-06
6.80874e-15
1.01229e-05
6.98256e-15
1.0821e-05
-9.06423e-15
1.15192e-05
6.75908e-15
1.22173e-05
-2.88897e-14
1.29154e-05
-1.22354e-14
1.36136e-05
4.80312e-15
1.43117e-05
2.50215e-14
1.50098e-05
3.8619e-15
1.5708e-05
3.60635e-15
1.64061e-05
-2.04852e-14
1.71042e-05
-2.17637e-14
1.78024e-05
3.46457e-15
1.85005e-05
2.90382e-14
1.91986e-05
-1.6636e-15
1.98967e-05
2.05949e-05
6.21562e-15
4.53785e-06
-3.87929e-15
5.23599e-06
1.54218e-14
5.93412e-06
-7.06571e-15
6.63225e-06
-2.21136e-15
7.33038e-06
1.42898e-15
8.02851e-06
-5.49341e-15
8.72664e-06
1.32253e-14
9.42478e-06
6.04518e-15
1.01229e-05
-1.74506e-14
1.0821e-05
2.08876e-14
1.15192e-05
-2.14455e-14
1.22173e-05
1.91318e-14
1.29154e-05
-7.31784e-15
1.36136e-05
3.84878e-14
1.43117e-05
-1.29246e-14
1.50098e-05
-1.88363e-15
1.5708e-05
5.71594e-15
1.64061e-05
-7.58755e-15
1.71042e-05
2.76548e-14
1.78024e-05
1.40912e-14
1.85005e-05
-5.31448e-14
1.91986e-05
3.9086e-14
1.98967e-05
2.05949e-05
-1.4988e-15
4.53785e-06
1.08971e-14
5.23599e-06
-6.59957e-15
5.93412e-06
7.26594e-15
6.63225e-06
6.17479e-15
7.33038e-06
2.48827e-15
8.02851e-06
-9.65611e-16
8.72664e-06
-4.36567e-15
9.42478e-06
-8.90175e-15
1.01229e-05
1.38635e-14
1.0821e-05
1.06912e-14
1.15192e-05
6.24989e-15
1.22173e-05
-1.28541e-16
1.29154e-05
-3.44125e-15
1.36136e-05
-1.10438e-14
1.43117e-05
-1.77665e-14
1.50098e-05
1.76781e-14
1.5708e-05
9.95309e-15
1.64061e-05
3.32954e-15
1.71042e-05
-3.29692e-14
1.78024e-05
-1.04231e-14
1.85005e-05
3.00619e-14
1.91986e-05
-5.99957e-14
1.98967e-05
2.05949e-05
5.17021e-15
4.53785e-06
-7.45577e-15
5.23599e-06
-7.56615e-16
5.93412e-06
6.8395e-15
6.63225e-06
-9.97436e-15
7.33038e-06
-1.66523e-15
8.02851e-06
9.21864e-15
8.72664e-06
-1.34595e-14
9.42478e-06
2.32222e-14
1.01229e-05
1.0472e-14
1.0821e-05
-1.7273e-14
1.15192e-05
-3.02646e-15
1.22173e-05
1.13972e-14
1.29154e-05
-1.98185e-14
1.36136e-05
-4.67901e-15
1.43117e-05
5.03042e-14
1.50098e-05
-2.40474e-14
1.5708e-05
-6.66093e-15
1.64061e-05
1.42591e-14
1.71042e-05
1.64821e-15
1.78024e-05
-6.814e-15
1.85005e-05
1.44421e-14
1.91986e-05
5.07545e-14
1.98967e-05
2.05949e-05
-6.19719e-15
4.53785e-06
2.85574e-17
5.23599e-06
1.15114e-14
5.93412e-06
-2.06262e-14
6.63225e-06
5.36663e-15
7.33038e-06
1.2211e-15
8.02851e-06
-4.83696e-17
8.72664e-06
1.23933e-14
9.42478e-06
-1.32269e-14
1.01229e-05
-1.88951e-14
1.0821e-05
-4.96428e-15
1.15192e-05
-7.15424e-15
1.22173e-05
-1.48871e-14
1.29154e-05
3.53396e-14
1.36136e-05
-3.30846e-18
1.43117e-05
-4.31409e-14
1.50098e-05
1.35619e-14
1.5708e-05
-2.82582e-14
1.64061e-05
2.45408e-15
1.71042e-05
-1.02427e-14
1.78024e-05
2.38017e-14
1.85005e-05
1.38772e-14
1.91986e-05
-4.55665e-14
1.98967e-05
2.05949e-05
-1.90701e-15
4.53785e-06
1.1306e-15
5.23599e-06
-2.1662e-14
5.93412e-06
9.62357e-15
6.63225e-06
1.51369e-14
7.33038e-06
-1.40655e-14
8.02851e-06
8.09138e-15
8.72664e-06
-2.69608e-14
9.42478e-06
-1.96845e-15
1.01229e-05
2.97157e-14
1.0821e-05
-1.17451e-14
1.15192e-05
1.98672e-14
1.22173e-05
-2.74451e-14
1.29154e-05
-2.06176e-14
1.36136e-05
1.60398e-14
1.43117e-05
-4.61536e-15
1.50098e-05
4.69141e-15
1.5708e-05
4.79681e-14
1.64061e-05
-1.37404e-14
1.71042e-05
3.23655e-14
1.78024e-05
-3.51867e-14
1.85005e-05
-2.49057e-14
1.91986e-05
7.19095e-14
1.98967e-05
2.05949e-05
1.90647e-15
4.53785e-06
-1.13067e-15
5.23599e-06
2.16614e-14
5.93412e-06
-9.62477e-15
6.63225e-06
-1.51374e-14
7.33038e-06
1.40651e-14
8.02851e-06
-8.09392e-15
8.72664e-06
2.69588e-14
9.42478e-06
1.96392e-15
1.01229e-05
-2.97189e-14
1.0821e-05
1.17453e-14
1.15192e-05
-1.98675e-14
1.22173e-05
2.74443e-14
1.29154e-05
2.06143e-14
1.36136e-05
-1.60432e-14
1.43117e-05
4.6122e-15
1.50098e-05
-4.69282e-15
1.5708e-05
-4.79691e-14
1.64061e-05
1.374e-14
1.71042e-05
-3.23757e-14
1.78024e-05
3.51848e-14
1.85005e-05
2.49065e-14
1.91986e-05
-7.19205e-14
1.98967e-05
2.05949e-05
6.19731e-15
4.53785e-06
-2.8804e-17
5.23599e-06
-1.1512e-14
5.93412e-06
2.06257e-14
6.63225e-06
-5.3677e-15
7.33038e-06
-1.2216e-15
8.02851e-06
4.58297e-17
8.72664e-06
-1.23943e-14
9.42478e-06
1.32256e-14
1.01229e-05
1.8894e-14
1.0821e-05
4.96345e-15
1.15192e-05
7.15394e-15
1.22173e-05
1.48878e-14
1.29154e-05
-3.53405e-14
1.36136e-05
-2.92872e-18
1.43117e-05
4.31359e-14
1.50098e-05
-1.35648e-14
1.5708e-05
2.82543e-14
1.64061e-05
-2.45565e-15
1.71042e-05
1.02377e-14
1.78024e-05
-2.3808e-14
1.85005e-05
-1.38799e-14
1.91986e-05
4.55607e-14
1.98967e-05
2.05949e-05
-5.17035e-15
4.53785e-06
7.45485e-15
5.23599e-06
7.5671e-16
5.93412e-06
-6.84e-15
6.63225e-06
9.97402e-15
7.33038e-06
1.66472e-15
8.02851e-06
-9.2198e-15
8.72664e-06
1.34589e-14
9.42478e-06
-2.32222e-14
1.01229e-05
-1.04743e-14
1.0821e-05
1.72716e-14
1.15192e-05
3.02684e-15
1.22173e-05
-1.13999e-14
1.29154e-05
1.98152e-14
1.36136e-05
4.67466e-15
1.43117e-05
-5.03094e-14
1.50098e-05
2.40408e-14
1.5708e-05
6.65888e-15
1.64061e-05
-1.42667e-14