/*--------------------------------*- C++ -*----------------------------------*\
  =========                 |
  \\      /  F ield         | OpenFOAM: The Open Source CFD Toolbox
   \\    /   O peration     | Website:  https://openfoam.org
    \\  /    A nd           | Version:  11
     \\/     M anipulation  |
\*---------------------------------------------------------------------------*/
FoamFile
{
    format      ascii;
    class       surfaceScalarField;
    location    "0.6";
    object      phi;
}
// * * * * * * * * * * * * * * * * * * * * * * * * * * * * * * * * * * * * * //

dimensions      [0 3 -1 0 0 0 0];

internalField   nonuniform List<scalar> 
5640
(
-1.37574e-07
1.37574e-07
-5.31503e-07
3.9393e-07
-9.69783e-07
4.38279e-07
-1.29826e-06
3.28477e-07
-1.40715e-06
1.08888e-07
6.8811e-08
-1.47596e-06
-2.71307e-07
4.08881e-07
-7.28982e-07
8.51605e-07
-1.18403e-06
8.93332e-07
-1.5123e-06
6.5674e-07
-1.68105e-06
2.7764e-07
1.96632e-08
-1.6319e-06
-3.26873e-07
7.35753e-07
-7.99621e-07
1.32435e-06
-1.26706e-06
1.36077e-06
-1.61779e-06
1.00748e-06
-1.80602e-06
4.65865e-07
-7.0974e-08
-1.71538e-06
-3.61579e-07
1.09733e-06
-8.31592e-07
1.79437e-06
-1.29667e-06
1.82585e-06
-1.65748e-06
1.36829e-06
-1.84579e-06
6.5417e-07
-1.90366e-07
-1.7264e-06
-3.88463e-07
1.48579e-06
-8.39232e-07
2.24514e-06
-1.28971e-06
2.27632e-06
-1.6484e-06
1.72698e-06
-1.82487e-06
8.3064e-07
-3.48343e-07
-1.66689e-06
-4.05527e-07
1.89132e-06
-8.2655e-07
2.66616e-06
-1.25085e-06
2.70061e-06
-1.59708e-06
2.07321e-06
-1.75103e-06
9.84592e-07
-5.56219e-07
-1.54315e-06
-3.99967e-07
2.29129e-06
-7.88982e-07
3.05517e-06
-1.18185e-06
3.09349e-06
-1.50656e-06
2.39792e-06
-1.62964e-06
1.10767e-06
-8.22578e-07
-1.36328e-06
-3.76592e-07
2.66788e-06
-7.27389e-07
3.40597e-06
-1.08432e-06
3.45041e-06
-1.3805e-06
2.69411e-06
-1.46726e-06
1.19442e-06
-1.15075e-06
-1.13909e-06
-3.38471e-07
3.00635e-06
-6.43968e-07
3.71147e-06
-9.60158e-07
3.7666e-06
-1.22262e-06
2.95657e-06
-1.2716e-06
1.24341e-06
-1.53849e-06
-8.83859e-07
-2.87269e-07
3.29362e-06
-5.40499e-07
3.9647e-06
-8.11561e-07
4.03767e-06
-1.0372e-06
3.18221e-06
-1.05165e-06
1.25786e-06
-1.97661e-06
-6.13533e-07
-2.24432e-07
3.51805e-06
-4.18951e-07
4.15922e-06
-6.40574e-07
4.25929e-06
-8.28478e-07
3.37011e-06
-8.16663e-07
1.24604e-06
-2.44646e-06
-3.46809e-07
-1.51587e-07
3.66964e-06
-2.81428e-07
4.28906e-06
-4.49285e-07
4.42715e-06
-6.00139e-07
3.52096e-06
-5.74639e-07
1.22054e-06
-2.92161e-06
-9.94927e-08
-7.03753e-08
3.74002e-06
-1.30288e-07
4.34897e-06
-2.39741e-07
4.5366e-06
-3.54685e-07
3.63591e-06
-3.30874e-07
1.19673e-06
-3.36993e-06
1.17446e-07
1.81121e-08
3.7219e-06
3.15077e-08
4.33557e-06
-1.41901e-08
4.5823e-06
-9.31075e-08
3.71483e-06
-9.09079e-08
1.19453e-06
-3.75763e-06
2.96791e-07
1.11151e-07
3.61075e-06
2.02612e-07
4.24411e-06
2.25745e-07
4.55916e-06
1.85435e-07
3.75514e-06
1.60242e-07
1.21972e-06
-4.04933e-06
4.51947e-07
2.11803e-07
3.39895e-06
3.78594e-07
4.07732e-06
4.76469e-07
4.46129e-06
4.80716e-07
3.75089e-06
4.28739e-07
1.2717e-06
-4.21233e-06
5.91736e-07
3.27152e-07
3.0718e-06
5.54608e-07
3.84986e-06
7.34354e-07
4.28154e-06
7.91636e-07
3.69361e-06
7.13655e-07
1.34968e-06
-4.22433e-06
7.25657e-07
4.24206e-07
2.64759e-06
7.2021e-07
3.55386e-06
9.94118e-07
4.00763e-06
1.11667e-06
3.57106e-06
1.02345e-06
1.4429e-06
-4.06534e-06
8.64457e-07
4.73195e-07
2.1744e-06
8.65158e-07
3.1619e-06
1.24968e-06
3.62311e-06
1.45369e-06
3.36705e-06
1.36606e-06
1.53052e-06
-3.72508e-06
1.02581e-06
4.96041e-07
1.67836e-06
9.86045e-07
2.67189e-06
1.49403e-06
3.11512e-06
1.8015e-06
3.05958e-06
1.75141e-06
1.58061e-06
-3.21058e-06
1.23691e-06
5.0026e-07
1.1781e-06
1.07885e-06
2.09331e-06
1.71746e-06
2.47651e-06
2.15732e-06
2.61972e-06
2.19191e-06
1.54602e-06
-2.55664e-06
1.53797e-06
4.83657e-07
6.94439e-07
1.13796e-06
1.439e-06
1.90103e-06
1.71344e-06
2.51371e-06
2.00704e-06
2.70054e-06
1.35919e-06
-1.82601e-06
1.96991e-06
4.33743e-07
2.60696e-07
1.15041e-06
7.22337e-07
2.00776e-06
8.56086e-07
2.85318e-06
1.16162e-06
3.28383e-06
9.28536e-07
-1.01739e-06
2.47521e-06
2.60696e-07
9.83033e-07
1.83912e-06
3.00074e-06
3.92928e-06
2.91189e-06
-4.51177e-07
1.59191e-06
-2.61669e-06
7.45087e-07
1.62953e-07
-1.35922e-06
2.52168e-06
-2.36724e-06
5.9065e-07
4.95799e-06
-5.5915e-06
3.1552e-06
8.06576e-06
-9.40845e-06
6.30068e-06
1.18078e-05
-1.3745e-05
1.0003e-05
1.6103e-05
-1.85168e-05
1.42216e-05
2.08141e-05
-2.35935e-05
1.88824e-05
2.57492e-05
-2.8791e-05
2.38559e-05
3.06992e-05
-3.39093e-05
2.89593e-05
3.54301e-05
-3.87252e-05
3.39943e-05
3.96978e-05
-4.30013e-05
3.87336e-05
4.33126e-05
-4.65541e-05
4.29394e-05
4.61949e-05
-4.9308e-05
4.64257e-05
4.83926e-05
-5.13057e-05
4.91079e-05
5.00379e-05
-5.26635e-05
5.10182e-05
5.12792e-05
-5.35077e-05
5.22664e-05
5.22364e-05
-5.3939e-05
5.29819e-05
5.2993e-05
-5.40356e-05
5.3279e-05
5.36255e-05
-5.38762e-05
5.32437e-05
5.4184e-05
-5.3516e-05
5.29575e-05
5.46945e-05
-5.29677e-05
5.24573e-05
5.51664e-05
-5.21795e-05
5.17076e-05
-5.09385e-05
5.04848e-05
-6.11829e-07
5.71833e-07
8.82055e-07
-1.33093e-06
3.00451e-06
-4.4897e-06
5.83482e-06
-8.42181e-06
9.36316e-06
-1.29368e-05
1.35174e-05
-1.78993e-05
1.81552e-05
-2.31546e-05
2.30677e-05
-2.8506e-05
2.8022e-05
-3.37453e-05
3.27606e-05
-3.86478e-05
3.70176e-05
-4.29821e-05
4.05935e-05
-4.65773e-05
4.34155e-05
-4.93761e-05
4.55449e-05
-5.14374e-05
4.71233e-05
-5.28841e-05
4.83015e-05
-5.38417e-05
4.91997e-05
-5.44059e-05
4.99062e-05
-5.46456e-05
5.04932e-05
-5.46226e-05
5.10151e-05
-5.43981e-05
5.15046e-05
-5.40056e-05
5.19794e-05
-5.34425e-05
5.24433e-05
-5.26435e-05
-5.14127e-05
-6.84917e-07
-4.58631e-07
1.03124e-06
-3.04708e-06
3.48398e-06
-6.94244e-06
6.70395e-06
-1.16418e-05
1.06373e-05
-1.68701e-05
1.51391e-05
-2.24011e-05
1.99821e-05
-2.79976e-05
2.49052e-05
-3.34291e-05
2.96228e-05
-3.84629e-05
3.38495e-05
-4.28745e-05
3.73818e-05
-4.65144e-05
4.01563e-05
-4.93518e-05
4.22454e-05
-5.14651e-05
4.37929e-05
-5.29849e-05
4.49459e-05
-5.40371e-05
4.58209e-05
-5.47166e-05
4.65038e-05
-5.50888e-05
4.70625e-05
-5.52043e-05
4.75541e-05
-5.51142e-05
4.80197e-05
-5.48637e-05
4.84814e-05
-5.44673e-05
4.89485e-05
-5.39096e-05
4.94215e-05
-5.31164e-05
-5.19138e-05
-6.64803e-07
-1.52022e-06
1.25464e-06
-4.96652e-06
4.03251e-06
-9.72032e-06
7.63583e-06
-1.52451e-05
1.19225e-05
-2.11568e-05
1.66445e-05
-2.71231e-05
2.15043e-05
-3.28573e-05
2.61805e-05
-3.81053e-05
3.03663e-05
-4.26487e-05
3.38559e-05
-4.63641e-05
3.65954e-05
-4.92539e-05
3.86634e-05
-5.14199e-05
4.02008e-05
-5.30026e-05
4.1347e-05
-5.41311e-05
4.22136e-05
-5.49037e-05
4.28849e-05
-5.53879e-05
4.34271e-05
-5.5631e-05
4.38957e-05
-5.56729e-05
4.4336e-05
-5.55545e-05
4.47754e-05
-5.53032e-05
4.52267e-05
-5.49186e-05
4.56925e-05
-5.43754e-05
4.61737e-05
-5.35976e-05
-5.24345e-05
-5.44735e-07
-2.64238e-06
1.5873e-06
-7.09856e-06
4.6951e-06
-1.28281e-05
8.64747e-06
-1.91975e-05
1.31769e-05
-2.56862e-05
1.79374e-05
-3.18835e-05
2.25592e-05
-3.74791e-05
2.67044e-05
-4.22505e-05
3.01597e-05
-4.61041e-05
3.28771e-05
-4.90815e-05
3.49377e-05
-5.13145e-05
3.64765e-05
-5.29586e-05
3.76246e-05
-5.41507e-05
3.84887e-05
-5.49952e-05
3.91514e-05
-5.55664e-05
3.96782e-05
-5.59147e-05
4.01234e-05
-5.60762e-05
4.05325e-05
-5.60819e-05
4.09386e-05
-5.59606e-05
4.13584e-05
-5.57231e-05
4.17978e-05
-5.5358e-05
4.22562e-05
-5.48338e-05
4.27365e-05
-5.40779e-05
-5.29619e-05
-3.2638e-07
-3.85915e-06
2.04046e-06
-9.4654e-06
5.46994e-06
-1.62576e-05
9.68847e-06
-2.3416e-05
1.42969e-05
-3.02947e-05
1.88522e-05
-3.64388e-05
2.29651e-05
-4.1592e-05
2.6402e-05
-4.56874e-05
2.91124e-05
-4.88145e-05
3.11762e-05
-5.11453e-05
3.27227e-05
-5.28609e-05
3.38763e-05
-5.41122e-05
3.47392e-05
-5.50136e-05
3.53925e-05
-5.56485e-05
3.59011e-05
-5.6075e-05
3.63187e-05
-5.63323e-05
3.66901e-05
-5.64477e-05
3.7051e-05
-5.64428e-05
3.74237e-05
-5.63334e-05
3.78175e-05
-5.61168e-05
3.82342e-05
-5.57746e-05
3.86727e-05
-5.52723e-05
3.91385e-05
-5.45437e-05
-5.34802e-05
-1.52366e-08
-5.20719e-06
2.5988e-06
-1.20794e-05
6.30597e-06
-1.99648e-05
1.06633e-05
-2.77733e-05
1.51272e-05
-3.47586e-05
1.92205e-05
-4.05321e-05
2.26611e-05
-4.50327e-05
2.53825e-05
-4.84088e-05
2.74598e-05
-5.08918e-05
2.90183e-05
-5.27038e-05
3.01783e-05
-5.40209e-05
3.10391e-05
-5.49731e-05
3.16806e-05
-5.56551e-05
3.2167e-05
-5.61349e-05
3.25516e-05
-5.64596e-05
3.28789e-05
-5.66595e-05
3.31851e-05
-5.67539e-05
3.34966e-05
-5.67543e-05
3.38277e-05
-5.66645e-05
3.41832e-05
-5.64723e-05
3.45634e-05
-5.61548e-05
3.49678e-05
-5.56767e-05
3.54039e-05
-5.49798e-05
-5.39722e-05
3.53281e-07
-6.69956e-06
3.22524e-06
-1.49514e-05
7.12832e-06
-2.38679e-05
1.14351e-05
-3.208e-05
1.55165e-05
-3.884e-05
1.89885e-05
-4.40042e-05
2.17438e-05
-4.77879e-05
2.38473e-05
-5.05123e-05
2.54225e-05
-5.2467e-05
2.65891e-05
-5.38704e-05
2.74458e-05
-5.48777e-05
2.80723e-05
-5.55995e-05
2.85328e-05
-5.61155e-05
2.88801e-05
-5.64823e-05
2.91582e-05
-5.67377e-05
2.94032e-05
-5.69045e-05
2.96432e-05
-5.69939e-05
2.9897e-05
-5.70081e-05
3.0174e-05
-5.69414e-05
3.04768e-05
-5.67752e-05
3.08057e-05
-5.64837e-05
3.11615e-05
-5.60325e-05
3.15525e-05
-5.53708e-05
-5.44215e-05
7.66142e-07
-8.34956e-06
3.86224e-06
-1.80475e-05
7.83661e-06
-2.78422e-05
1.188e-05
-3.61235e-05
1.54114e-05
-4.23713e-05
1.82307e-05
-4.68235e-05
2.0379e-05
-4.99362e-05
2.19788e-05
-5.21121e-05
2.31532e-05
-5.36414e-05
2.40037e-05
-5.47209e-05
2.46115e-05
-5.54854e-05
2.50419e-05
-5.603e-05
2.53484e-05
-5.6422e-05
2.55744e-05
-5.67082e-05
2.57551e-05
-5.69184e-05
2.59186e-05
-5.7068e-05
2.6086e-05
-5.71613e-05
2.62709e-05
-5.7193e-05
2.64798e-05
-5.71503e-05
2.67154e-05
-5.70108e-05
2.69785e-05
-5.67469e-05
2.72714e-05
-5.63254e-05
2.76028e-05
-5.57022e-05
-5.48133e-05
1.19396e-06
-1.01571e-05
4.44964e-06
-2.13032e-05
8.32871e-06
-3.17213e-05
1.19341e-05
-3.97289e-05
1.48576e-05
-4.52948e-05
1.70791e-05
-4.9045e-05
1.87178e-05
-5.15749e-05
1.99047e-05
-5.32991e-05
2.0748e-05
-5.44847e-05
2.13332e-05
-5.53061e-05
2.17287e-05
-5.58809e-05
2.19898e-05
-5.62911e-05
2.21606e-05
-5.65928e-05
2.22759e-05
-5.68235e-05
2.23626e-05
-5.70051e-05
2.24415e-05
-5.71469e-05
2.25278e-05
-5.72476e-05
2.26318e-05
-5.7297e-05
2.27592e-05
-5.72778e-05
2.29137e-05
-5.71653e-05
2.30978e-05
-5.6931e-05
2.33148e-05
-5.65423e-05
2.35737e-05
-5.5961e-05
-5.51348e-05
1.60407e-06
-1.21079e-05
4.93039e-06
-2.46295e-05
8.54437e-06
-3.53353e-05
1.16169e-05
-4.28014e-05
1.39554e-05
-4.76333e-05
1.56583e-05
-5.07479e-05
1.6869e-05
-5.27856e-05
1.77077e-05
-5.41378e-05
1.82677e-05
-5.50447e-05
1.86227e-05
-5.5661e-05
1.88317e-05
-5.609e-05
1.89418e-05
-5.64011e-05
1.89887e-05
-5.66398e-05
1.89991e-05
-5.68339e-05
1.89921e-05
-5.69982e-05
1.89819e-05
-5.71367e-05
1.8979e-05
-5.72447e-05
1.89915e-05
-5.73095e-05
1.90256e-05
-5.73118e-05
1.90866e-05
-5.72263e-05
1.91793e-05
-5.70236e-05
1.93082e-05
-5.66713e-05
1.94827e-05
-5.61355e-05
-5.53749e-05
1.96149e-06
-1.41689e-05
5.25385e-06
-2.79219e-05
8.47436e-06
-3.85558e-05
1.09936e-05
-4.53206e-05
1.2805e-05
-4.94447e-05
1.40622e-05
-5.20051e-05
1.49055e-05
-5.36289e-05
1.54414e-05
-5.46737e-05
1.57516e-05
-5.53549e-05
1.59012e-05
-5.58106e-05
1.5942e-05
-5.61307e-05
1.59132e-05
-5.63723e-05
1.58431e-05
-5.65697e-05
1.57509e-05
-5.67416e-05
1.56488e-05
-5.68961e-05
1.55454e-05
-5.70333e-05
1.54472e-05
-5.71465e-05
1.53606e-05
-5.72229e-05
1.52922e-05
-5.72434e-05
1.52491e-05
-5.71833e-05
1.52387e-05
-5.70132e-05
1.5268e-05
-5.67006e-05
1.53473e-05
-5.62148e-05
-5.55252e-05
2.2409e-06
-1.62924e-05
5.39149e-06
-3.10725e-05
8.14956e-06
-4.13139e-05
1.01421e-05
-4.73131e-05
1.14882e-05
-5.07909e-05
1.23567e-05
-5.28736e-05
1.28764e-05
-5.41486e-05
1.31417e-05
-5.4939e-05
1.32262e-05
-5.54394e-05
1.3188e-05
-5.57725e-05
1.30723e-05
-5.6015e-05
1.29115e-05
-5.62116e-05
1.27271e-05
-5.63854e-05
1.25319e-05
-5.65464e-05
1.23327e-05
-5.66969e-05
1.21334e-05
-5.6834e-05
1.1937e-05
-5.69501e-05
1.17476e-05
-5.70335e-05
1.15713e-05
-5.7067e-05
1.14165e-05
-5.70285e-05
1.12931e-05
-5.68899e-05
1.12117e-05
-5.66191e-05
1.1186e-05
-5.61891e-05
-5.55806e-05
2.43283e-06
-1.84284e-05
5.34743e-06
-3.39871e-05
7.62422e-06
-4.35907e-05
9.13378e-06
-4.88227e-05
1.00668e-05
-5.17239e-05
1.05888e-05
-5.33955e-05
1.0816e-05
-5.43758e-05
1.0834e-05
-5.49571e-05
1.07097e-05
-5.53151e-05
1.04954e-05
-5.55582e-05
1.023e-05
-5.57496e-05
9.93957e-06
-5.59211e-05
9.63976e-06
-5.60855e-05
9.33858e-06
-5.62452e-05
9.03914e-06
-5.63975e-05
8.74202e-06
-5.65368e-05
8.44726e-06
-5.66554e-05
8.1562e-06
-5.67424e-05
7.873e-06
-5.67838e-05
7.60568e-06
-5.67612e-05
7.36566e-06
-5.66498e-05
7.16516e-06
-5.64186e-05
7.02045e-06
-5.60444e-05
-5.55404e-05
2.54444e-06
-2.05209e-05
5.14985e-06
-3.65925e-05
6.95535e-06
-4.53962e-05
8.02551e-06
-4.98929e-05
8.58555e-06
-5.2284e-05
8.79134e-06
-5.36013e-05
8.74878e-06
-5.43332e-05
8.53638e-06
-5.47447e-05
8.21527e-06
-5.49939e-05
7.83201e-06
-5.51749e-05
7.41923e-06
-5.53368e-05
6.99738e-06
-5.54993e-05
6.57756e-06
-5.56657e-05
6.16459e-06
-5.58322e-05
5.75951e-06
-5.59924e-05
5.36141e-06
-5.61387e-05
4.96891e-06
-5.62629e-05
4.58159e-06
-5.63551e-05
4.2015e-06
-5.64037e-05
3.83503e-06
-5.63947e-05
3.49483e-06
-5.63096e-05
3.19633e-06
-5.61201e-05
2.92815e-06
-5.57762e-05
-5.53672e-05
2.59201e-06
-2.25212e-05
4.83843e-06
-3.88389e-05
6.19234e-06
-4.67501e-05
6.85982e-06
-5.05603e-05
7.07687e-06
-5.2501e-05
6.98884e-06
-5.35133e-05
6.69331e-06
-5.40377e-05
6.26281e-06
-5.43142e-05
5.7529e-06
-5.4484e-05
5.20412e-06
-5.46262e-05
4.64305e-06
-5.47758e-05
4.08502e-06
-5.49413e-05
3.53751e-06
-5.51182e-05
3.00331e-06
-5.5298e-05
2.48268e-06
-5.54718e-05
1.97479e-06
-5.56308e-05
1.47876e-06
-5.57669e-05
9.94728e-07
-5.58711e-05
5.24538e-07
-5.59336e-05
7.2277e-08
-5.59424e-05
-3.52359e-07
-5.5885e-05
-7.2016e-07
-5.57523e-05
-9.69709e-07
-5.55267e-05
-5.48951e-05
2.59734e-06
-2.43929e-05
4.4564e-06
-4.06979e-05
5.37878e-06
-4.76724e-05
5.67052e-06
-5.08521e-05
5.56566e-06
-5.23962e-05
5.19995e-06
-5.31476e-05
4.66385e-06
-5.35016e-05
4.02426e-06
-5.36746e-05
3.33083e-06
-5.37906e-05
2.61776e-06
-5.39131e-05
1.90566e-06
-5.40637e-05
1.2052e-06
-5.42408e-05
5.20763e-07
-5.44338e-05
-1.46597e-07
-5.46307e-05
-7.97316e-07
-5.4821e-05
-1.43241e-06
-5.49957e-05
-2.05283e-06
-5.51464e-05
-2.65916e-06
-5.52647e-05
-3.25126e-06
-5.53415e-05
-3.82738e-06
-5.53663e-05
-4.38369e-06
-5.53287e-05
-4.9244e-06
-5.52116e-05
-5.49975e-06
-5.49513e-05
-5.44894e-05
2.58668e-06
-2.61151e-05
4.04397e-06
-4.21552e-05
4.55032e-06
-4.81788e-05
4.48324e-06
-5.0785e-05
4.07059e-06
-5.19835e-05
3.43884e-06
-5.25158e-05
2.67152e-06
-5.27343e-05
1.82976e-06
-5.28328e-05
9.5634e-07
-5.29172e-05
7.91786e-08
-5.30359e-05
-7.86622e-07
-5.31979e-05
-1.63486e-06
-5.33926e-05
-2.46391e-06
-5.36047e-05
-3.27426e-06
-5.38203e-05
-4.06724e-06
-5.40281e-05
-4.84441e-06
-5.42186e-05
-5.6073e-06
-5.43836e-05
-6.35726e-06
-5.45148e-05
-7.09519e-06
-5.46035e-05
-7.8214e-06
-5.46401e-05
-8.53681e-06
-5.46133e-05
-9.24397e-06
-5.45045e-05
-9.92143e-06
-5.42739e-05
-5.39515e-05
2.59729e-06
-2.76866e-05
3.63353e-06
-4.31915e-05
3.73235e-06
-4.82776e-05
3.31631e-06
-5.0369e-05
2.60506e-06
-5.12722e-05
1.71595e-06
-5.16267e-05
7.24477e-07
-5.17428e-05
-3.14586e-07
-5.17938e-05
-1.36401e-06
-5.18678e-05
-2.40421e-06
-5.19957e-05
-3.4254e-06
-5.21767e-05
-4.42472e-06
-5.23932e-05
-5.40269e-06
-5.26267e-05
-6.36106e-06
-5.28619e-05
-7.3018e-06
-5.30873e-05
-8.22674e-06
-5.32936e-05
-9.13749e-06
-5.34728e-05
-1.00352e-05
-5.36171e-05
-1.09202e-05
-5.37185e-05
-1.17919e-05
-5.37684e-05
-1.2648e-05
-5.37572e-05
-1.34816e-05
-5.36709e-05
-1.4269e-05
-5.34865e-05
-5.32744e-05
2.67667e-06
-2.91263e-05
3.25353e-06
-4.37683e-05
2.9427e-06
-4.79668e-05
2.18159e-06
-4.96078e-05
1.17772e-06
-5.02684e-05
3.63194e-08
-5.04853e-05
-1.17105e-06
-5.05354e-05
-2.40049e-06
-5.05643e-05
-3.62377e-06
-5.06445e-05
-4.82593e-06
-5.07936e-05
-6.00227e-06
-5.10003e-05
-7.15322e-06
-5.12423e-05
-8.28103e-06
-5.14989e-05
-9.3882e-06
-5.17548e-05
-1.04769e-05
-5.19986e-05
-1.15489e-05
-5.22216e-05
-1.26054e-05
-5.24163e-05
-1.36468e-05
-5.25757e-05
-1.46725e-05
-5.26928e-05
-1.56803e-05
-5.27606e-05
-1.6666e-05
-5.27716e-05
-1.76203e-05
-5.27165e-05
-1.8524e-05
-5.25828e-05
-5.24651e-05
2.86405e-06
-3.04524e-05
2.92839e-06
-4.38327e-05
2.19298e-06
-4.72314e-05
1.08528e-06
-4.85002e-05
-2.10694e-07
-4.89724e-05
-1.59282e-06
-4.91032e-05
-3.01092e-06
-4.91173e-05
-4.42633e-06
-4.91489e-05
-5.8185e-06
-4.92523e-05
-7.1794e-06
-4.94327e-05
-8.50879e-06
-4.96709e-05
-9.8097e-06
-4.99414e-05
-1.10856e-05
-5.0223e-05
-1.23395e-05
-5.05009e-05
-1.35735e-05
-5.07646e-05
-1.4789e-05
-5.10061e-05
-1.59867e-05
-5.12187e-05
-1.71663e-05
-5.13961e-05
-1.83263e-05
-5.15327e-05
-1.94638e-05
-5.16231e-05
-2.05733e-05
-5.16621e-05
-2.16459e-05
-5.16439e-05
-2.26657e-05
-5.1563e-05
-5.15293e-05
3.17743e-06
-3.16599e-05
2.68549e-06
-4.33407e-05
1.48846e-06
-4.60343e-05
2.08612e-08
-4.70326e-05
-1.55291e-06
-4.73986e-05
-3.17431e-06
-4.74818e-05
-4.79496e-06
-4.74967e-05
-6.38862e-06
-4.75552e-05
-7.94368e-06
-4.76973e-05
-9.4586e-06
-4.79177e-05
-1.09371e-05
-4.81924e-05
-1.23844e-05
-4.84941e-05
-1.38048e-05
-4.88026e-05
-1.52013e-05
-4.91043e-05
-1.6576e-05
-4.93899e-05
-1.79298e-05
-4.96523e-05
-1.9263e-05
-4.98855e-05
-2.05747e-05
-5.00844e-05
-2.1863e-05
-5.02444e-05
-2.31243e-05
-5.03617e-05
-2.43533e-05
-5.04331e-05
-2.55416e-05
-5.04556e-05
-2.66762e-05
-5.04284e-05
-5.04711e-05
3.73291e-06
-3.29176e-05
2.53396e-06
-4.21418e-05
8.16849e-07
-4.43172e-05
-1.0067e-06
-4.5209e-05
-2.8644e-06
-4.55409e-05
-4.71227e-06
-4.56339e-05
-6.52395e-06
-4.5685e-05
-8.28584e-06
-4.57933e-05
-9.99568e-06
-4.59874e-05
-1.16581e-05
-4.62553e-05
-1.32802e-05
-4.65703e-05
-1.48687e-05
-4.69057e-05
-1.64282e-05
-4.7243e-05
-1.7962e-05
-4.75706e-05
-1.94716e-05
-4.78803e-05
-2.09578e-05
-4.81661e-05
-2.24204e-05
-4.84229e-05
-2.38583e-05
-4.86466e-05
-2.52692e-05
-4.88335e-05
-2.66495e-05
-4.89814e-05
-2.79938e-05
-4.90888e-05
-2.92948e-05
-4.91546e-05
-3.05414e-05
-4.91818e-05
-4.92949e-05
4.96727e-06
-3.4973e-05
2.40636e-06
-3.95809e-05
1.19957e-07
-4.20308e-05
-2.0472e-06
-4.30419e-05
-4.16032e-06
-4.34278e-05
-6.21407e-06
-4.35802e-05
-8.1998e-06
-4.36993e-05
-1.01167e-05
-4.38765e-05
-1.19711e-05
-4.4133e-05
-1.37728e-05
-4.44536e-05
-1.55314e-05
-4.48117e-05
-1.72544e-05
-4.51827e-05
-1.89468e-05
-4.55507e-05
-2.06113e-05
-4.59061e-05
-2.22494e-05
-4.62422e-05
-2.38615e-05
-4.6554e-05
-2.54472e-05
-4.68373e-05
-2.70051e-05
-4.70886e-05
-2.8533e-05
-4.73056e-05
-3.00272e-05
-4.74872e-05
-3.14827e-05
-4.76334e-05
-3.28926e-05
-4.77447e-05
-3.42475e-05
-4.78269e-05
-4.80055e-05
-1.68842e-07
1.68842e-07
-2.0374e-08
-1.48468e-07
4.74179e-07
-4.94553e-07
1.39618e-06
-9.22001e-07
4.11963e-06
-2.72345e-06
-5.84471e-06
9.96434e-06
-7.72196e-08
2.46061e-07
1.9208e-07
-4.17767e-07
7.46454e-07
-1.04893e-06
1.79538e-06
-1.97093e-06
3.53625e-06
-4.46432e-06
-8.78193e-06
6.47347e-06
1.34884e-08
2.32573e-07
3.21815e-07
-7.26094e-07
8.80275e-07
-1.60739e-06
1.83205e-06
-2.9227e-06
3.1158e-06
-5.74807e-06
-1.0215e-05
4.54886e-06
8.57263e-08
1.46846e-07
3.9663e-07
-1.037e-06
9.09305e-07
-2.12006e-06
1.69169e-06
-3.70509e-06
2.56766e-06
-6.62403e-06
-1.0831e-05
3.18368e-06
1.39923e-07
6.92317e-09
4.2801e-07
-1.32508e-06
8.62642e-07
-2.55469e-06
1.44415e-06
-4.2866e-06
1.95044e-06
-7.13032e-06
-1.09159e-05
2.0353e-06
1.71467e-07
-1.64544e-07
4.22976e-07
-1.57659e-06
7.61059e-07
-2.89278e-06
1.13508e-06
-4.66062e-06
1.31595e-06
-7.31119e-06
-1.06133e-05
1.01339e-06
1.81772e-07
-3.46316e-07
3.88304e-07
-1.78313e-06
6.22048e-07
-3.12652e-06
7.97348e-07
-4.83592e-06
6.98243e-07
-7.21209e-06
-1.00082e-05
9.30969e-08
1.73861e-07
-5.20177e-07
3.31332e-07
-1.9406e-06
4.60861e-07
-3.25605e-06
4.55262e-07
-4.83032e-06
1.22256e-07
-6.87908e-06
-9.18538e-06
-7.00539e-07
1.51812e-07
-6.71989e-07
2.59348e-07
-2.04813e-06
2.90676e-07
-3.28738e-06
1.27106e-07
-4.66675e-06
-3.98788e-07
-6.35319e-06
-8.1853e-06
-1.39887e-06
1.19999e-07
-7.91989e-07
1.79169e-07
-2.1073e-06
1.22581e-07
-3.23079e-06
-1.73222e-07
-4.37095e-06
-8.53285e-07
-5.67313e-06
-7.04766e-06
-1.99093e-06
8.2504e-08
-8.74493e-07
9.67792e-08
-2.12158e-06
-3.44662e-08
-3.09954e-06
-4.35383e-07
-3.97003e-06
-1.23374e-06
-4.87477e-06
-5.80579e-06
-2.47561e-06
4.28044e-08
-9.17297e-07
1.70674e-08
-2.09584e-06
-1.73713e-07
-2.90876e-06
-6.5198e-07
-3.49176e-06
-1.53499e-06
-3.99175e-06
-4.48874e-06
-2.85204e-06
3.71498e-09
-9.21012e-07
-5.62781e-08
-2.03585e-06
-2.90449e-07
-2.67459e-06
-8.18192e-07
-2.96402e-06
-1.75365e-06
-3.05629e-06
-3.12324e-06
-3.11915e-06
-3.2811e-08
-8.88201e-07
-1.20818e-07
-1.94784e-06
-3.82122e-07
-2.41329e-06
-9.31552e-07
-2.41459e-06
-1.88774e-06
-2.10011e-06
-1.73559e-06
-3.27539e-06
-6.51119e-08
-8.23089e-07
-1.7524e-07
-1.83771e-06
-4.4812e-07
-2.14041e-06
-9.91803e-07
-1.87091e-06
-1.93672e-06
-1.15519e-06
-3.53744e-07
-3.31856e-06
-9.20899e-08
-7.30999e-07
-2.19263e-07
-1.71054e-06
-4.89723e-07
-1.86995e-06
-1.00092e-06
-1.35971e-06
-1.90159e-06
-2.54517e-07
9.90185e-07
-3.24552e-06
-1.12756e-07
-6.18243e-07
-2.53521e-07
-1.56977e-06
-5.101e-07
-1.61337e-06
-9.63384e-07
-9.06429e-07
-1.78547e-06
5.67568e-07
2.25648e-06
-3.05176e-06
-1.26171e-07
-4.92072e-07
-2.79368e-07
-1.41658e-06
-5.14304e-07
-1.37843e-06
-8.86749e-07
-5.33984e-07
-1.59447e-06
1.27529e-06
3.39271e-06
-2.73071e-06
-1.31232e-07
-3.6084e-07
-2.98614e-07
-1.2492e-06
-5.092e-07
-1.16785e-06
-7.82495e-07
-2.6069e-07
-1.33984e-06
1.83264e-06
4.32573e-06
-2.27286e-06
-1.26502e-07
-2.34337e-07
-3.13172e-07
-1.06253e-06
-5.03188e-07
-9.77832e-07
-6.66956e-07
-9.69223e-08
-1.04238e-06
2.20806e-06
4.94867e-06
-1.66531e-06
-1.1036e-07
-1.23977e-07
-3.24661e-07
-8.48225e-07
-5.05895e-07
-7.96597e-07
-5.62722e-07
-4.00951e-08
-7.28165e-07
2.3735e-06
5.1252e-06
-9.04696e-07
-8.24095e-08
-4.1568e-08
-3.33672e-07
-5.96962e-07
-5.28006e-07
-6.02263e-07
-5.02684e-07
-6.54174e-08
-3.82235e-07
2.25305e-06
4.81853e-06
-7.55701e-08
-4.33122e-08
1.74428e-09
-3.36769e-07
-3.03505e-07
-5.82243e-07
-3.56789e-07
-5.49188e-07
-9.84723e-08
1.00399e-07
1.60346e-06
3.40578e-06
1.51315e-06
1.74428e-09
-3.01761e-07
-6.5855e-07
-7.57023e-07
8.46442e-07
4.25223e-06
5.0629e-06
-3.00715e-05
1.94109e-06
-3.64591e-05
-6.96047e-07
-3.93937e-05
-3.13267e-06
-4.06052e-05
-5.45721e-06
-4.11033e-05
-7.6855e-06
-4.13519e-05
-9.82302e-06
-4.15617e-05
-1.18789e-05
-4.18205e-05
-1.38661e-05
-4.21459e-05
-1.57975e-05
-4.25221e-05
-1.76844e-05
-4.29248e-05
-1.95343e-05
-4.33327e-05
-2.1352e-05
-4.3733e-05
-2.31399e-05
-4.41181e-05
-2.48993e-05
-4.44828e-05
-2.66304e-05
-4.48229e-05
-2.83325e-05
-4.51351e-05
-3.00043e-05
-4.54168e-05
-3.16434e-05
-4.56665e-05
-3.32462e-05
-4.58844e-05
-3.48078e-05
-4.60717e-05
-3.63221e-05
-4.62304e-05
-3.7781e-05
-4.6368e-05
-4.66077e-05
3.73836e-06
-2.73364e-05
1.00926e-06
-3.373e-05
-1.68758e-06
-3.66968e-05
-4.28121e-06
-3.80116e-05
-6.75916e-06
-3.86253e-05
-9.12562e-06
-3.89854e-05
-1.13906e-05
-3.92968e-05
-1.35686e-05
-3.96426e-05
-1.56757e-05
-4.00387e-05
-1.77266e-05
-4.04713e-05
-1.97326e-05
-4.09189e-05
-2.17009e-05
-4.13644e-05
-2.36358e-05
-4.17982e-05
-2.55393e-05
-4.22146e-05
-2.74124e-05
-4.26097e-05
-2.92551e-05
-4.29803e-05
-3.10666e-05
-4.33236e-05
-3.28456e-05
-4.36378e-05
-3.45897e-05
-4.39225e-05
-3.62952e-05
-4.41789e-05
-3.79576e-05
-4.44094e-05
-3.9571e-05
-4.4617e-05
-4.11289e-05
-4.48102e-05
-4.51068e-05
2.57694e-06
-2.53645e-05
-4.47944e-08
-3.11083e-05
-2.78294e-06
-3.39587e-05
-5.46983e-06
-3.53247e-05
-8.05328e-06
-3.60419e-05
-1.05254e-05
-3.65133e-05
-1.28954e-05
-3.69268e-05
-1.51793e-05
-3.73587e-05
-1.7394e-05
-3.7824e-05
-1.95538e-05
-3.83115e-05
-2.16693e-05
-3.88033e-05
-2.3747e-05
-3.92867e-05
-2.57904e-05
-3.97548e-05
-2.78012e-05
-4.02038e-05
-2.97799e-05
-4.0631e-05
-3.17265e-05
-4.10337e-05
-3.36402e-05
-4.14099e-05
-3.55194e-05
-4.17586e-05
-3.73617e-05
-4.20801e-05
-3.91636e-05
-4.2377e-05
-4.09205e-05
-4.26525e-05
-4.26273e-05
-4.29102e-05
-4.42787e-05
-4.31587e-05
-4.35081e-05
1.37695e-06
-2.35578e-05
-1.17374e-06
-2.85576e-05
-3.92473e-06
-3.12077e-05
-6.66458e-06
-3.25849e-05
-9.31925e-06
-3.33872e-05
-1.18717e-05
-3.39609e-05
-1.43281e-05
-3.44703e-05
-1.67036e-05
-3.49832e-05
-1.9014e-05
-3.55136e-05
-2.12722e-05
-3.60532e-05
-2.34876e-05
-3.6588e-05
-2.56653e-05
-3.71089e-05
-2.78082e-05
-3.76119e-05
-2.99175e-05
-3.80945e-05
-3.19936e-05
-3.85549e-05
-3.40361e-05
-3.89912e-05
-3.60442e-05
-3.94018e-05
-3.80162e-05
-3.97865e-05
-3.99496e-05
-4.01468e-05
-4.18407e-05
-4.04859e-05
-4.36854e-05
-4.08078e-05
-4.54794e-05
-4.11162e-05
-4.72188e-05
-4.14192e-05
-4.18173e-05
2.2682e-07
-2.17493e-05
-2.3048e-06
-2.60259e-05
-5.06063e-06
-2.84519e-05
-7.83165e-06
-2.98138e-05
-1.05357e-05
-3.06831e-05
-1.31503e-05
-3.13463e-05
-1.56785e-05
-3.19421e-05
-1.81332e-05
-3.25285e-05
-2.05283e-05
-3.31185e-05
-2.28748e-05
-3.37067e-05
-2.51802e-05
-3.42826e-05
-2.74485e-05
-3.48406e-05
-2.96817e-05
-3.53787e-05
-3.18807e-05
-3.58955e-05
-3.40455e-05
-3.63901e-05
-3.61757e-05
-3.6861e-05
-3.82702e-05
-3.73074e-05
-4.03272e-05
-3.77296e-05
-4.23438e-05
-3.81301e-05
-4.43167e-05
-3.8513e-05
-4.62421e-05
-3.88825e-05
-4.81166e-05
-3.92416e-05
-4.99382e-05
-3.95977e-05
-4.00406e-05
-8.73848e-07
-1.98621e-05
-3.39372e-06
-2.35061e-05
-6.15298e-06
-2.56926e-05
-8.94412e-06
-2.70227e-05
-1.16841e-05
-2.79432e-05
-1.43481e-05
-2.86824e-05
-1.69366e-05
-2.93536e-05
-1.946e-05
-3.00051e-05
-2.19296e-05
-3.06488e-05
-2.43544e-05
-3.12819e-05
-2.674e-05
-3.18971e-05
-2.90892e-05
-3.24914e-05
-3.14035e-05
-3.30644e-05
-3.36831e-05
-3.36159e-05
-3.59279e-05
-3.41452e-05
-3.81372e-05
-3.46517e-05
-4.03098e-05
-3.51348e-05
-4.24434e-05
-3.55959e-05
-4.45354e-05
-3.60381e-05
-4.65823e-05
-3.64661e-05
-4.8581e-05
-3.68838e-05
-5.05293e-05
-3.72933e-05
-5.24263e-05
-3.77006e-05
-3.81844e-05
-1.87187e-06
-1.78971e-05
-4.40847e-06
-2.09695e-05
-7.17525e-06
-2.29259e-05
-9.98151e-06
-2.42164e-05
-1.27493e-05
-2.51753e-05
-1.54537e-05
-2.5978e-05
-1.80934e-05
-2.67139e-05
-2.06761e-05
-2.74224e-05
-2.32108e-05
-2.81142e-05
-2.57042e-05
-2.87885e-05
-2.81602e-05
-2.9441e-05
-3.05808e-05
-3.00708e-05
-3.29666e-05
-3.06787e-05
-3.53177e-05
-3.12649e-05
-3.76335e-05
-3.18294e-05
-3.99131e-05
-3.2372e-05
-4.2155e-05
-3.28929e-05
-4.43569e-05
-3.3394e-05
-4.65159e-05
-3.38791e-05
-4.8629e-05
-3.4353e-05
-5.06937e-05
-3.48191e-05
-5.27081e-05
-3.52789e-05
-5.46721e-05
-3.57366e-05
-3.62535e-05
-2.76576e-06
-1.58319e-05
-5.33109e-06
-1.84041e-05
-8.10905e-06
-2.01479e-05
-1.09288e-05
-2.13967e-05
-1.37196e-05
-2.23845e-05
-1.64578e-05
-2.32397e-05
-1.91409e-05
-2.40309e-05
-2.17744e-05
-2.47889e-05
-2.4365e-05
-2.55236e-05
-2.69175e-05
-2.62359e-05
-2.94345e-05
-2.6924e-05
-3.19168e-05
-2.75885e-05
-3.43647e-05
-2.82308e-05
-3.67777e-05
-2.88518e-05
-3.91552e-05
-2.94519e-05
-4.1496e-05
-3.00313e-05
-4.37982e-05
-3.05907e-05
-4.60596e-05
-3.11326e-05
-4.82774e-05
-3.16613e-05
-5.0449e-05
-3.21813e-05
-5.25727e-05
-3.26954e-05
-5.4647e-05
-3.32045e-05
-5.66711e-05
-3.37126e-05
-3.42583e-05
-3.55162e-06
-1.36791e-05
-6.15017e-06
-1.58056e-05
-8.94218e-06
-1.73559e-05
-1.17753e-05
-1.85636e-05
-1.4586e-05
-1.95738e-05
-1.73527e-05
-2.0473e-05
-2.00723e-05
-2.13112e-05
-2.27487e-05
-2.21126e-05
-2.53864e-05
-2.28858e-05
-2.79888e-05
-2.36335e-05
-3.05571e-05
-2.43557e-05
-3.30915e-05
-2.50541e-05
-3.55918e-05
-2.57305e-05
-3.80573e-05
-2.63863e-05
-4.0487e-05
-2.70222e-05
-4.28794e-05
-2.76388e-05
-4.52327e-05
-2.82374e-05
-4.75444e-05
-2.88209e-05
-4.98122e-05
-2.93935e-05
-5.20344e-05
-2.99592e-05
-5.42098e-05
-3.052e-05
-5.63376e-05
-3.10767e-05
-5.84168e-05
-3.16334e-05
-3.22086e-05
-4.22479e-06
-1.14453e-05
-6.8587e-06
-1.31717e-05
-9.66705e-06
-1.45475e-05
-1.25137e-05
-1.5717e-05
-1.53419e-05
-1.67456e-05
-1.81324e-05
-1.76824e-05
-2.08822e-05
-1.85614e-05
-2.35937e-05
-1.94011e-05
-2.62699e-05
-2.02096e-05
-2.89129e-05
-2.09905e-05
-3.15231e-05
-2.17455e-05
-3.41001e-05
-2.24771e-05
-3.66432e-05
-2.31874e-05
-3.91515e-05
-2.3878e-05
-4.16238e-05
-2.45499e-05
-4.40584e-05
-2.52042e-05
-4.64532e-05
-2.58426e-05
-4.88062e-05
-2.6468e-05
-5.11154e-05
-2.70843e-05
-5.338e-05
-2.76946e-05
-5.55995e-05
-2.83004e-05
-5.7774e-05
-2.89023e-05
-5.99033e-05
-2.95041e-05
-3.01147e-05
-4.78267e-06
-9.1382e-06
-7.45268e-06
-1.05017e-05
-1.02791e-05
-1.17211e-05
-1.31393e-05
-1.28568e-05
-1.59827e-05
-1.39022e-05
-1.87927e-05
-1.48725e-05
-2.15664e-05
-1.57878e-05
-2.43053e-05
-1.66622e-05
-2.70115e-05
-1.75035e-05
-2.9686e-05
-1.83159e-05
-3.23286e-05
-1.9103e-05
-3.49385e-05
-1.98673e-05
-3.75148e-05
-2.06112e-05
-4.00563e-05
-2.13364e-05
-4.25617e-05
-2.20445e-05
-4.50291e-05
-2.27368e-05
-4.74564e-05
-2.34153e-05
-4.98418e-05
-2.40827e-05
-5.2184e-05
-2.47421e-05
-5.44827e-05
-2.53959e-05
-5.67381e-05
-2.6045e-05
-5.89504e-05
-2.669e-05
-6.11207e-05
-2.73338e-05
-2.79827e-05
-5.22415e-06
-6.76609e-06
-7.93028e-06
-7.79553e-06
-1.07763e-05
-8.87507e-06
-1.36497e-05
-9.98332e-06
-1.6506e-05
-1.1046e-05
-1.93307e-05
-1.20477e-05
-2.21218e-05
-1.29967e-05
-2.48804e-05
-1.39035e-05
-2.76081e-05
-1.47759e-05
-3.0305e-05
-1.5619e-05
-3.29705e-05
-1.64374e-05
-3.56037e-05
-1.72341e-05
-3.82035e-05
-1.80113e-05
-4.07688e-05
-1.87712e-05
-4.32979e-05
-1.95155e-05
-4.57889e-05
-2.02459e-05
-4.82397e-05
-2.09644e-05
-5.0649e-05
-2.16734e-05
-5.30159e-05
-2.23751e-05
-5.53405e-05
-2.30713e-05
-5.76232e-05
-2.37623e-05
-5.98644e-05
-2.44487e-05
-6.2065e-05
-2.51332e-05
-2.58203e-05
-5.54896e-06
-4.33628e-06
-8.29126e-06
-5.05323e-06
-1.1158e-05
-6.00838e-06
-1.40442e-05
-7.09709e-06
-1.69105e-05
-8.17973e-06
-1.97451e-05
-9.21312e-06
-2.25469e-05
-1.01949e-05
-2.53174e-05
-1.1133e-05
-2.80576e-05
-1.20356e-05
-3.07676e-05
-1.29091e-05
-3.34465e-05
-1.37586e-05
-3.60933e-05
-1.45872e-05
-3.87071e-05
-1.53975e-05
-4.12865e-05
-1.61918e-05
-4.38299e-05
-1.69721e-05
-4.63352e-05
-1.77406e-05
-4.88007e-05
-1.84989e-05
-5.12251e-05
-1.92489e-05
-5.36083e-05
-1.9992e-05
-5.59504e-05
-2.07291e-05
-5.82517e-05
-2.14611e-05
-6.05121e-05
-2.21883e-05
-6.27332e-05
-2.29121e-05
-2.36358e-05
-5.75723e-06
-1.85445e-06