/*--------------------------------*- C++ -*----------------------------------*\
  =========                 |
  \\      /  F ield         | OpenFOAM: The Open Source CFD Toolbox
   \\    /   O peration     | Website:  https://openfoam.org
    \\  /    A nd           | Version:  11
     \\/     M anipulation  |
\*---------------------------------------------------------------------------*/
FoamFile
{
    format      ascii;
    class       surfaceVectorField;
    location    "0.6";
    object      Uf;
}
// * * * * * * * * * * * * * * * * * * * * * * * * * * * * * * * * * * * * * //

dimensions      [0 1 -1 0 0 0 0];

internalField   nonuniform List<vector> 
5640
(
(-0.0529548 0.0224267 -1.45601e-19)
(-0.046586 0.019489 -2.43941e-20)
(-0.108007 0.00656892 7.54216e-19)
(-0.0970436 0.0112918 2.95885e-19)
(-0.146186 -0.00515818 6.81709e-19)
(-0.151024 -0.0108656 2.53263e-20)
(-0.163185 -0.00562346 2.27653e-19)
(-0.172332 -0.0138688 1.64684e-19)
(-0.167262 0.0149057 8.95074e-21)
(-0.177728 -0.00935069 -8.05052e-20)
(-0.184854 0.00306865 8.36886e-20)
(-0.187002 0.0567405 -3.69855e-20)
(-0.084856 0.0122702 4.004e-19)
(-0.066514 0.0135653 7.03026e-19)
(-0.142666 -0.00715982 -4.18646e-19)
(-0.126564 0.00264845 1.66019e-20)
(-0.176272 -0.0195512 -4.93335e-19)
(-0.176684 -0.0209576 -4.10476e-20)
(-0.187314 -0.0211517 -1.46036e-19)
(-0.192731 -0.0275771 -3.01101e-21)
(-0.186094 -0.0115738 5.13518e-21)
(-0.194338 -0.0283526 -1.38458e-19)
(-0.190558 -0.0173367 9.13959e-20)
(-0.186625 0.0223006 2.3458e-19)
(-0.103803 0.00887445 3.58829e-19)
(-0.0822466 0.0122341 2.56591e-20)
(-0.162185 -0.0116143 3.92376e-19)
(-0.147022 -1.40241e-05 1.66019e-20)
(-0.192762 -0.0273881 4.45067e-19)
(-0.193255 -0.0247422 3.92974e-19)
(-0.20024 -0.0339391 8.76288e-21)
(-0.205705 -0.0358886 3.97436e-20)
(-0.194168 -0.029944 -5.98822e-20)
(-0.202843 -0.0415677 -1.59987e-19)
(-0.188873 -0.0349485 -2.34345e-19)
(-0.181637 -0.00488353 -1.08709e-19)
(-0.120571 0.00691659 -3.12326e-19)
(-0.098081 0.0110276 1.55704e-20)
(-0.178216 -0.0138258 1.58731e-23)
(-0.164845 -0.00215461 0)
(-0.20527 -0.0319925 1.71387e-23)
(-0.206364 -0.0264654 -2.05308e-19)
(-0.208413 -0.0429445 -1.22967e-19)
(-0.215155 -0.0414439 -1.48426e-19)
(-0.195485 -0.0439778 -3.32873e-19)
(-0.20648 -0.0511612 1.16605e-20)
(-0.181654 -0.0492221 -1.0613e-19)
(-0.169865 -0.0274404 -2.4294e-19)
(-0.136613 0.00414216 3.28795e-19)
(-0.114274 0.00932357 -2.95502e-20)
(-0.192278 -0.0152984 -1.96866e-19)
(-0.180688 -0.00480671 -2.30241e-19)
(-0.215335 -0.0347455 -3.5665e-19)
(-0.21716 -0.0270357 -2.27688e-19)
(-0.213329 -0.0491376 -1.86565e-20)
(-0.222123 -0.0449142 1.60668e-19)
(-0.191904 -0.0545936 2.40612e-19)
(-0.206515 -0.0577354 1.08578e-19)
(-0.169483 -0.0598303 1.51683e-19)
(-0.15155 -0.0450194 1.9183e-20)
(-0.152026 0.001202 -5.84849e-19)
(-0.129624 0.0084214 -3.35821e-19)
(-0.204422 -0.0165902 -2.61172e-19)
(-0.193944 -0.00715811 -2.38337e-19)
(-0.223269 -0.0360387 2.7531e-19)
(-0.225946 -0.0266803 -4.37054e-22)
(-0.215534 -0.0528536 2.89174e-19)
(-0.226987 -0.046347 1.47974e-19)
(-0.184207 -0.0617545 1.74081e-20)
(-0.203555 -0.0613849 -2.94339e-20)
(-0.152851 -0.066538 4.99525e-20)
(-0.127313 -0.0573261 1.41867e-19)
(-0.167421 0.00145453 5.45862e-21)
(-0.143386 0.00864761 1.20038e-20)
(-0.214258 -0.016861 1.25849e-20)
(-0.204439 -0.00803584 -8.66975e-21)
(-0.229268 -0.0358378 -1.32955e-19)
(-0.232981 -0.0252569 2.40087e-22)
(-0.215403 -0.0540749 -1.65719e-19)
(-0.230048 -0.0457007 7.48805e-22)
(-0.172956 -0.0653525 0)
(-0.198111 -0.0621054 -1.22078e-19)
(-0.132367 -0.0692352 1.03791e-19)
(-0.0977463 -0.0642455 0)
(-0.178093 0.00109907 -7.6547e-22)
(-0.155813 0.00895658 -3.85225e-19)
(-0.222003 -0.0158626 -2.13321e-20)
(-0.212634 -0.0074597 4.3433e-19)
(-0.233611 -0.0340215 1.3402e-19)
(-0.238499 -0.0225634 -2.13956e-20)
(-0.213377 -0.0528171 4.78342e-20)
(-0.231673 -0.0429899 1.88733e-20)
(-0.158802 -0.0653775 -2.37017e-20)
(-0.190741 -0.0599212 -1.49708e-20)
(-0.108835 -0.0679704 1.31114e-20)
(-0.0636123 -0.065879 1.21039e-19)
(-0.187286 0.00169697 2.61988e-21)
(-0.166559 0.00941846 1.80043e-19)
(-0.228013 -0.0135288 4.53693e-19)
(-0.218881 -0.00553633 2.25708e-19)
(-0.236613 -0.0305138 -1.38299e-19)
(-0.242754 -0.0184896 1.06847e-20)
(-0.209917 -0.0491129 -4.29406e-20)
(-0.232247 -0.0382414 -1.52246e-19)
(-0.142488 -0.0619365 2.08102e-20)
(-0.182105 -0.054927 1.07213e-19)
(-0.083217 -0.0629944 -1.16863e-19)
(-0.0258067 -0.0624099 -1.05984e-19)
(-0.195007 0.00309869 4.00885e-19)
(-0.175395 0.010009 3.7297e-19)
(-0.232536 -0.00979268 -2.08172e-19)
(-0.22341 -0.00226791 -3.18025e-19)
(-0.238616 -0.0252848 2.34721e-21)
(-0.246002 -0.0129525 -7.58719e-20)
(-0.205592 -0.0430523 -9.36721e-21)
(-0.232193 -0.0315087 3.12773e-23)
(-0.124922 -0.0552717 -2.53588e-20)
(-0.172972 -0.0472955 -8.08045e-21)
(-0.0566373 -0.0547843 -2.59817e-20)
(0.0146359 -0.054259 5.43261e-20)
(-0.200968 0.00518156 -3.06277e-19)
(-0.182108 0.0107597 -1.92874e-19)
(-0.235808 -0.00463304 -1.9603e-19)
(-0.226421 0.00230377 2.3776e-22)
(-0.239956 -0.0183186 -8.06467e-20)
(-0.248483 -0.00588557 -8.71767e-20)
(-0.201023 -0.0347731 1.73329e-21)
(-0.231965 -0.02287 9.14302e-21)
(-0.107139 -0.0457444 -8.27416e-21)
(-0.164208 -0.0372246 -7.43184e-20)
(-0.0304013 -0.0439536 0)
(0.056472 -0.0421225 -5.67298e-20)
(-0.205047 0.0079418 1.02503e-19)
(-0.186509 0.0117821 0)
(-0.238037 0.00193794 1.12814e-19)
(-0.228081 0.00810242 1.08778e-19)
(-0.240986 -0.00963331 -6.4008e-22)
(-0.250428 0.00273099 8.71679e-20)
(-0.196892 -0.0244323 -6.43808e-20)
(-0.232032 -0.0124227 3.83911e-20)
(-0.0902811 -0.0337525 -6.78258e-20)
(-0.156747 -0.0248904 -3.33115e-20)
(-0.00588049 -0.0310844 -3.71727e-20)
(0.0983694 -0.0266395 0)
(-0.207215 0.0114509 0)
(-0.188442 0.0133279 -7.61459e-22)
(-0.239407 0.00986076 8.40456e-20)
(-0.228521 0.0150156 1.21491e-20)
(-0.242049 0.000718972 1.27841e-19)
(-0.25203 0.0128615 8.91631e-20)
(-0.193908 -0.0121771 7.15158e-20)
(-0.232832 -0.000277154 -3.51031e-22)
(-0.0755617 -0.0196728 -2.5184e-21)
(-0.151559 -0.0104124 7.60232e-20)
(0.0155362 -0.0165717 9.72209e-22)
(0.138923 -0.00832169 -3.18664e-20)
(-0.207461 0.0159315 1.06428e-20)
(-0.187794 0.0159144 4.81716e-20)
(-0.240067 0.0189808 1.39317e-20)
(-0.227879 0.0229098 -3.01448e-20)
(-0.243445 0.0126189 -3.60053e-20)
(-0.253426 0.0244027 -2.09845e-20)
(-0.192782 0.0018669 1.97824e-21)
(-0.234715 0.0134403 -1.87765e-20)
(-0.0642116 -0.00416543 8.12956e-20)
(-0.149774 0.00612832 3.4497e-20)
(0.032488 -0.000706336 4.63231e-20)
(0.176719 0.012295 4.45083e-20)
(-0.205929 0.0213002 1.1892e-20)
(-0.184656 0.0207293 -1.8166e-21)
(-0.240102 0.0293916 -6.55199e-20)
(-0.226158 0.0316065 -1.35838e-20)
(-0.245353 0.0259927 -3.82437e-21)
(-0.254709 0.0371937 6.25955e-22)
(-0.194094 0.0176217 1.22405e-20)
(-0.237902 0.02852 -2.21046e-22)
(-0.0573358 0.0136179 -6.83629e-22)
(-0.151973 0.0245787 -8.51947e-21)
(0.043562 0.0161781 -4.10811e-20)
(0.21024 0.0359092 9.13792e-21)
(-0.203117 0.0286192 -2.62789e-20)
(-0.179436 0.0308518 1.45763e-19)
(-0.239673 0.0407204 5.1928e-20)
(-0.223547 0.0406722 1.45319e-19)
(-0.247885 0.0405237 4.26645e-21)
(-0.255867 0.050971 -7.11009e-20)
(-0.198141 0.0348115 -2.07416e-20)
(-0.242424 0.0446413 6.3022e-20)
(-0.0560416 0.0334945 -4.80417e-20)
(-0.158515 0.0447425 0)
(0.0474328 0.0335839 -1.58551e-20)
(0.237804 0.0624811 -8.82491e-20)
(-0.19847 0.0398416 3.17387e-19)
(-0.171943 0.043211 -1.75825e-19)
(-0.238891 0.0525172 3.14995e-20)
(-0.220435 0.0488852 -1.17034e-19)
(-0.250987 0.0559159 -1.68765e-20)
(-0.256706 0.065254 1.37249e-20)
(-0.205038 0.0530575 8.55305e-20)
(-0.248127 0.0614427 -1.16262e-20)
(-0.0610808 0.0544637 3.25327e-20)
(-0.169776 0.0663432 -7.59442e-20)
(0.0431905 0.0507641 3.33318e-20)
(0.258122 0.0916765 6.98974e-20)
(-0.190477 0.0490582 -6.1338e-19)
(-0.160784 0.0478413 -2.03449e-19)
(-0.237304 0.0635451 -1.40127e-19)
(-0.215887 0.0547865 -1.21376e-19)
(-0.254333 0.0717563 2.03043e-20)
(-0.256629 0.0794514 9.52462e-20)
(-0.214701 0.071976 -1.7122e-19)
(-0.254622 0.078608 -8.40425e-20)
(-0.0731073 0.076203 -7.77648e-20)
(-0.185751 0.0891053 -1.84046e-20)
(0.0300505 0.0667545 1.75782e-20)
(0.270027 0.122986 0)
(-0.180836 0.0502689 2.86226e-19)
(-0.146049 0.0446275 1.66546e-19)
(-0.233898 0.0728009 1.0539e-19)
(-0.208118 0.0583508 1.12607e-19)
(-0.257262 0.0877064 -3.33413e-21)
(-0.25469 0.0931529 4.27324e-22)
(-0.226716 0.0912532 6.65905e-20)
(-0.26128 0.0959448 -2.91427e-22)
(-0.0925058 0.0982802 6.31585e-20)
(-0.206078 0.112921 5.71871e-20)
(0.00761412 0.0806697 2.00699e-19)
(0.272345 0.156178 2.04993e-20)
(-0.168252 0.0486303 -5.13479e-21)
(-0.129193 0.0396468 -9.79932e-21)
(-0.227508 0.0805932 1.24183e-20)
(-0.196471 0.0601846 -2.55626e-19)
(-0.258938 0.103528 3.90312e-21)
(-0.249947 0.106189 1.29702e-20)
(-0.240354 0.110907 -1.13064e-20)
(-0.267076 0.113179 1.75619e-19)
(-0.119179 0.120546 1.78731e-19)
(-0.230101 0.138103 2.11156e-20)
(-0.0239955 0.0921271 -1.78838e-19)
(0.264084 0.191608 1.56045e-19)
(-0.151811 0.0465812 -2.46108e-19)
(-0.111055 0.0345397 3.4725e-19)
(-0.217444 0.0871974 -2.66504e-19)
(-0.1806 0.0604324 -2.62061e-19)
(-0.258266 0.118924 1.80312e-19)
(-0.241506 0.118417 2.21683e-19)
(-0.254466 0.131182 2.12373e-19)
(-0.270068 0.129169 -8.1618e-21)
(-0.152794 0.143279 -3.08435e-19)
(-0.257168 0.166252 -1.50715e-19)
(-0.0635482 0.100718 -1.97301e-19)
(0.245214 0.231 -3.74407e-19)
(-0.134369 0.0428765 3.64359e-19)
(-0.0917325 0.0284362 -4.6825e-20)
(-0.20384 0.0923395 2.04932e-19)
(-0.159803 0.05847 2.89094e-19)
(-0.254291 0.132496 4.03037e-20)
(-0.228422 0.128924 2.15206e-19)
(-0.26774 0.152247 -3.67965e-19)
(-0.266459 0.141448 3.69505e-20)
(-0.193131 0.166975 -1.99196e-20)
(-0.28734 0.201295 -1.27449e-20)
(-0.106283 0.101924 1.59862e-19)
(0.216802 0.277056 1.92517e-19)
(-0.113556 0.0358821 -1.39254e-19)
(-0.0669711 0.0130086 -8.13145e-19)
(-0.18594 0.0947904 3.01904e-19)
(-0.127627 0.0451011 2.7106e-19)
(-0.24429 0.141327 2.23499e-19)
(-0.205255 0.12867 1.34435e-20)
(-0.279008 0.173393 3.78313e-19)
(-0.244984 0.139297 4.07924e-20)
(-0.239016 0.19229 1.60641e-19)
(-0.320249 0.24662 1.33463e-19)
(-0.144251 0.084111 3.08867e-20)
(0.18405 0.327091 0)
(-0.0746267 0.0135929 -4.6538e-19)
(-0.148718 0.0806851 -1.06393e-20)
(-0.208084 0.130587 -1.67353e-19)
(-0.265523 0.189353 -2.40434e-19)
(-0.266179 0.2341 6.16785e-21)
(0.153424 0.372743 -1.38417e-19)
(-0.141462 0.13375 1.09696e-19)
(-0.172271 0.0959057 1.19928e-19)
(-0.165121 0.145337 1.43248e-20)
(-0.0643213 0.152246 2.27285e-20)
(-0.100859 0.126781 4.48514e-20)
(-0.114724 0.161212 6.6672e-20)
(0.0376341 0.160837 -2.0018e-19)
(0.00233144 0.141118 3.55145e-20)
(-0.0349403 0.172761 -7.59359e-20)
(0.161435 0.162668 -1.04483e-19)
(0.128621 0.147583 -3.464e-20)
(0.0668168 0.177481 -1.04231e-19)
(0.303632 0.157156 -2.76459e-20)
(0.274854 0.147508 -2.57369e-20)
(0.188803 0.175357 2.30255e-21)
(0.460105 0.143204 2.97679e-20)
(0.436463 0.139947 -1.75617e-21)
(0.327844 0.164974 -1.02778e-19)
(0.626095 0.119989 1.95556e-21)
(0.608249 0.123866 -1.07344e-21)
(0.480147 0.145084 1.34013e-19)
(0.79539 0.0875343 -6.32756e-20)
(0.783573 0.0988315 9.20903e-22)
(0.641142 0.115109 -2.05841e-19)
(0.960468 0.0469596 -1.20429e-19)
(0.954495 0.0654223 0)
(0.804843 0.0755069 2.09993e-19)
(1.11413 0.000290902 -6.55103e-20)
(1.11341 0.0251171 -4.93957e-21)
(0.964175 0.0279105 -1.8866e-19)
(1.24907 -0.0496711 9.36542e-21)
(1.25269 -0.0197191 6.49059e-21)
(1.11238 -0.0252311 5.92288e-20)
(1.35823 -0.0994284 -6.60885e-21)
(1.36503 -0.0659028 4.70013e-20)
(1.24239 -0.0806263 -1.15358e-19)
(1.43707 -0.145412 6.96508e-21)
(1.44592 -0.110011 -4.16246e-20)
(1.34741 -0.134401 1.04262e-19)
(1.48521 -0.184803 -3.9327e-20)
(1.49534 -0.149123 3.46028e-21)
(1.4231 -0.182797 1.3498e-20)
(1.50642 -0.216057 -8.04795e-20)
(1.51748 -0.181417 -5.45592e-20)
(1.46909 -0.222958 0)
(1.50673 -0.238827 -4.82662e-20)
(1.51864 -0.206199 -2.2883e-20)
(1.48894 -0.253486 2.20394e-20)
(1.49199 -0.253415 3.06048e-20)
(1.50474 -0.22346 9.48654e-20)
(1.48834 -0.274322 -1.14898e-19)
(1.46658 -0.260327 0)
(1.48018 -0.23347 0)
(1.47302 -0.286093 4.98016e-20)
(1.43371 -0.260481 9.21714e-21)
(1.44803 -0.236737 -9.5618e-21)
(1.4473 -0.289913 1.87801e-20)
(1.39605 -0.254775 -9.16698e-21)
(1.41098 -0.23409 2.72842e-20)
(1.41424 -0.286734 2.33008e-20)
(1.35505 -0.243662 2.65e-21)
(1.37072 -0.226281 -5.15998e-20)
(1.37647 -0.277672 2.298e-20)
(1.3108 -0.226663 1.92133e-20)
(1.32777 -0.213369 2.38769e-20)
(1.33522 -0.263201 -6.17335e-21)
(1.26088 -0.200629 8.52559e-21)
(1.28159 -0.193779 -7.15231e-21)
(1.29025 -0.242193 -4.83453e-21)
(1.22864 -0.162149 6.87895e-21)
(1.23821 -0.208763 6.89965e-21)
(-0.133689 0.0901219 5.58115e-20)
(-0.167655 0.0522272 1.35138e-20)
(-0.035409 0.115943 5.9931e-20)
(-0.0774048 0.0880507 4.25844e-20)
(0.091028 0.127966 2.01537e-19)
(0.048991 0.106229 7.33344e-20)
(0.239777 0.132872 4.17597e-20)
(0.200938 0.11667 6.83455e-20)
(0.405584 0.131053 -1.34942e-21)
(0.372045 0.121188 3.44943e-21)
(0.582759 0.121644 -3.1784e-20)
(0.555591 0.119002 3.00327e-20)
(0.764162 0.103921 -1.99194e-21)
(0.743668 0.109006 -5.97557e-20)
(0.941243 0.0779746 6.34863e-20)
(0.927161 0.0906823 6.11173e-20)
(1.10593 0.044789 1.13916e-19)
(1.09741 0.0644275 1.02433e-19)
(1.25025 0.00620384 6.43349e-20)
(1.24607 0.0316183 6.55288e-20)
(1.36662 -0.0350575 4.03712e-20)
(1.36555 -0.00538235 -9.42e-20)
(1.4505 -0.0758324 1.31391e-20)
(1.45157 -0.0435735 -6.37248e-20)
(1.50206 -0.113269 -4.52813e-20)
(1.50473 -0.0800074 5.97591e-20)
(1.52585 -0.145414 -1.49286e-20)
(1.52994 -0.112456 -3.9966e-20)
(1.52845 -0.171295 3.73581e-21)
(1.53394 -0.139627 1.65954e-20)
(1.51588 -0.190589 1.20562e-19)
(1.5228 -0.160923 5.00265e-20)
(1.49257 -0.203284 6.32259e-20)
(1.50093 -0.176133 7.52532e-20)
(1.46159 -0.209626 -9.49536e-21)
(1.47131 -0.185286 0)
(1.42544 -0.210143 8.81567e-21)
(1.43629 -0.188697 2.48783e-22)
(1.38593 -0.205446 -1.24166e-20)
(1.39789 -0.186975 1.85651e-20)
(1.3439 -0.195791 -3.28555e-20)
(1.35711 -0.180566 -3.26539e-20)
(1.29891 -0.180476 -2.13696e-21)
(1.31404 -0.169276 0)
(1.24823 -0.156582 -2.1827e-21)
(1.26789 -0.151155 -3.04162e-21)
(1.21496 -0.121608 8.63225e-22)
(-0.114225 0.0497131 4.00698e-21)
(-0.1525 0.0153096 -1.02101e-19)
(0.00467405 0.0784196 5.72176e-20)
(-0.0425485 0.0507111 -4.90439e-22)
(0.156319 0.0950668 -5.82972e-20)
(0.10853 0.072844 -3.86605e-20)
(0.33072 0.10541 3.24075e-20)
(0.287163 0.0892516 -5.81388e-22)
(0.519813 0.109848 3.23272e-20)
(0.482951 0.10084 3.18434e-20)
(0.714641 0.107296 3.31093e-21)
(0.685376 0.106231 0)
(0.905072 0.0967998 5.77241e-21)
(0.883229 0.103782 -4.52063e-20)
(1.08178 0.0781776 9.95712e-20)
(1.06628 0.0926093 -5.10551e-21)
(1.23594 0.0522163 5.54428e-20)
(1.22523 0.0729445 9.78255e-20)
(1.35963 0.020789 -9.12162e-20)
(1.3523 0.0462871 -1.32288e-19)
(1.44867 -0.0134101 -1.96059e-19)
(1.44375 0.0152065 1.37626e-21)
(1.50408 -0.0474967 -1.32429e-20)
(1.50111 -0.0172912 -8.89891e-20)
(1.53121 -0.0790887 6.35626e-20)
(1.53003 -0.0485497 1.08745e-19)
(1.53705 -0.106613 -5.85433e-21)
(1.53758 -0.0766979 -9.38666e-20)
(1.5277 -0.129191 6.68845e-20)
(1.52993 -0.100623 8.91576e-20)
(1.50758 -0.146377 7.47689e-21)
(1.51151 -0.119722 -2.13717e-20)
(1.47965 -0.158012 1.2573e-20)
(1.48529 -0.133687 9.68563e-21)
(1.44615 -0.16422 9.36717e-21)
(1.45336 -0.14247 -2.33616e-20)
(1.40899 -0.165406 9.49563e-21)
(1.41763 -0.146293 1.81745e-20)
(1.36943 -0.161945 0)
(1.3795 -0.14561 -8.24657e-21)
(1.32773 -0.153838 0)
(1.3394 -0.140623 4.51643e-21)
(1.28302 -0.140268 -8.86544e-22)
(1.29706 -0.130917 -3.89174e-21)
(1.23241 -0.11864 -2.79595e-20)
(1.25152 -0.114273 4.71205e-21)
(1.19909 -0.0869839 -4.68975e-21)
(-0.0840052 0.0151219 -1.08558e-19)
(-0.128024 -0.0142442 -1.19275e-19)
(0.0581401 0.0447677 -9.45244e-20)
(0.00478535 0.0187549 -2.02072e-19)
(0.236385 0.0670747 1.96198e-20)
(0.18307 0.0455829 1.80554e-21)
(0.436668 0.0850412 0)
(0.389133 0.0699607 1.59772e-20)
(0.646244 0.0978484 0)
(0.607125 0.0906244 5.41253e-20)
(0.852086 0.103515 -4.76583e-20)
(0.82188 0.104691 0)
(1.04275 0.100466 -5.54949e-20)
(1.02029 0.109627 1.79213e-21)
(1.20815 0.0881983 -6.99348e-21)
(1.19154 0.104209 -3.17792e-21)
(1.34005 0.0676425 -8.55168e-20)
(1.32758 0.0889104 7.31049e-20)
(1.43492 0.0410612 -4.25423e-20)
(1.42544 0.0659181 -8.14439e-20)
(1.49484 0.0114402 1.0652e-19)
(1.48775 0.0383903 1.68308e-20)
(1.52599 -0.0183704 3.56066e-20)
(1.52099 0.00946345 6.4542e-20)
(1.53566 -0.0462219 -4.65862e-20)
(1.53255 -0.0184297 -7.16422e-20)
(1.53003 -0.0707473 4.34052e-21)
(1.5287 -0.0437072 -1.57865e-20)
(1.51355 -0.0911534 2.64935e-21)
(1.51397 -0.0654382 1.85113e-20)
(1.48922 -0.106992 -1.87686e-20)
(1.49143 -0.0830762 3.25456e-22)
(1.45915 -0.118062 -2.57594e-20)
(1.46316 -0.0963033 -4.65365e-21)
(1.42508 -0.124441 -1.48429e-20)
(1.43075 -0.105041 -2.02486e-20)
(1.38843 -0.126399 1.01184e-21)
(1.39568 -0.109426 8.74182e-21)
(1.34986 -0.124127 -3.812e-21)
(1.35876 -0.109759 -8.24657e-21)
(1.30921 -0.117479 3.22125e-21)
(1.31992 -0.106105 4.51643e-21)
(1.26525 -0.105616 1.65562e-21)
(1.27866 -0.0978784 -1.36707e-20)
(1.21514 -0.0863108 3.75938e-20)
(1.23398 -0.0826926 5.19899e-21)
(1.18232 -0.0577669 8.69598e-21)
(-0.0430884 -0.0121279 -2.10804e-19)
(-0.0952202 -0.0362066 -1.57744e-20)
(0.125856 0.0188138 -1.09841e-19)
(0.0648482 -0.00505855 1.65351e-22)
(0.332402 0.0483357 -2.80789e-21)
(0.27319 0.0282054 -1.74561e-20)
(0.556719 0.0757925 6.94646e-20)
(0.505737 0.0624617 1.59772e-20)
(0.780427 0.0980077 5.49477e-20)
(0.740118 0.0931066 5.274e-20)
(0.988105 0.111503 4.95971e-20)
(0.957747 0.115196 0)
(1.16741 0.114076 5.09434e-20)
(1.14479 0.125287 8.79545e-21)
(1.30955 0.105456 7.60108e-20)
(1.29248 0.122533 0)
(1.4117 0.0874646 7.76403e-20)
(1.39859 0.108658 3.80455e-20)
(1.47718 0.0632959 -2.22392e-20)
(1.46707 0.0870723 -1.34303e-21)
(1.51306 0.0363322 -2.35538e-20)
(1.50536 0.0614769 3.15801e-21)
(1.52699 0.00929297 -4.22449e-20)
(1.52132 0.0348837 5.4829e-21)
(1.52529 -0.0159986 -4.13329e-20)
(1.52141 0.00933642 -2.29347e-20)
(1.51254 -0.0384372 0)
(1.51035 -0.0139138 0)
(1.49189 -0.0573574 1.63318e-20)
(1.49141 -0.0341137 0)
(1.46551 -0.0723446 1.4149e-20)
(1.46679 -0.0507802 1.64626e-20)
(1.43498 -0.0831907 7.92301e-22)
(1.43801 -0.063608 -7.05836e-21)
(1.40161 -0.0899222 3.05054e-21)
(1.40629 -0.0724983 5.8933e-21)
(1.36629 -0.092688 0)
(1.37264 -0.0775096 0)
(1.3292 -0.0915415 0)
(1.33734 -0.0788221 0)
(1.28983 -0.0862605 -9.80455e-21)
(1.29998 -0.0764266 2.95438e-21)
(1.2468 -0.0760662 -2.1301e-20)
(1.25989 -0.0696201 -4.19398e-21)
(1.19746 -0.0591114 -3.25971e-20)
(1.21617 -0.0558994 1.27867e-20)
(1.16543 -0.033394 -1.2083e-21)
(0.00813386 -0.0309549 1.94845e-19)
(-0.0548898 -0.0506032 1.03265e-19)
(0.207675 0.00321549 9.32049e-20)
(0.137234 -0.0188932 1.63746e-19)
(0.442728 0.0420075 0)
(0.377433 0.023177 9.32732e-20)
(0.686064 0.0799328 -2.18607e-21)
(0.632621 0.0686801 5.96063e-20)
(0.914972 0.110782 -2.25703e-21)
(0.874494 0.108517 -3.79024e-21)
(1.11254 0.129573 -4.09241e-20)
(1.08278 0.135723 0)
(1.26842 0.134227 -4.2035e-20)
(1.24652 0.147115 -1.96616e-20)
(1.38036 0.125984 -3.83996e-20)
(1.36394 0.143679 -1.4566e-20)
(1.45302 0.1083 -3.99435e-20)
(1.44048 0.129123 -4.00492e-20)
(1.49454 0.0851664 2.55266e-20)
(1.48487 0.107816 1.86368e-20)
(1.51317 0.0599128 3.36059e-20)
(1.50572 0.0834213 2.65434e-20)
(1.51552 0.0348382 2.38395e-20)
(1.50991 0.0584888 3.80206e-20)
(1.50644 0.0113771 1.82839e-20)
(1.50244 0.0346265 2.67713e-20)
(1.48931 -0.00959274 0)
(1.48685 0.0128168 -8.16271e-21)
(1.46645 -0.0275042 0)
(1.46556 -0.0063186 -2.02526e-21)
(1.43948 -0.0419778 -4.81697e-21)
(1.44022 -0.022354 -4.6489e-23)
(1.40957 -0.0528082 -2.07976e-21)
(1.41197 -0.0350071 -6.50819e-21)
(1.37759 -0.0599789 2.84938e-21)
(1.38162 -0.0441629 6.95498e-21)
(1.34397 -0.0635465 0)
(1.34974 -0.0498219 -7.61254e-21)
(1.3085 -0.0634758 2.93543e-21)
(1.31617 -0.0520813 0)
(1.27047 -0.0595199 8.68653e-21)
(1.28029 -0.0509049 -4.76159e-21)
(1.22844 -0.0510026 1.8762e-20)
(1.24136 -0.0455091 -3.37154e-21)
(1.18002 -0.0364322 5.20047e-20)
(1.19865 -0.0332919 6.55506e-21)
(1.14896 -0.0132259 -1.04079e-20)
(0.0690397 -0.0404078 7.07159e-20)
(-0.00766088 -0.057687 0)
(0.301884 -0.000346331 1.66024e-19)
(0.220612 -0.0216165 -4.38919e-20)
(0.563133 0.049293 1.53506e-19)
(0.492342 0.031779 4.0542e-20)
(0.817754 0.0973475 5.84466e-20)
(0.763131 0.0883351 2.55215e-22)
(1.03993 0.133901 -2.22651e-21)
(1.00049 0.134388 -3.41281e-21)
(1.21515 0.153717 2.22705e-20)
(1.18716 0.16219 0)
(1.34088 0.156824 8.08124e-21)
(1.32076 0.171109 2.25849e-20)
(1.42318 0.146871 -1.5469e-20)
(1.40831 0.164985 -1.4566e-20)
(1.4717 0.128573 1.87875e-20)
(1.46041 0.149005 -1.3395e-21)
(1.49567 0.105975 1.95711e-20)
(1.48693 0.127641 -1.51771e-20)
(1.5023 0.0819264 3.18238e-20)
(1.4955 0.104054 8.49101e-21)
(1.49682 0.058251 4.12802e-20)
(1.49161 0.0802868 3.24134e-20)
(1.48295 0.0360806 3.0942e-22)
(1.47913 0.0576078 8.6465e-21)
(1.46326 0.0161339 -1.02392e-20)
(1.46079 0.0368097 -8.16271e-21)
(1.43953 -0.00110292 -2.08747e-21)
(1.43845 0.0184102 -1.16157e-22)
(1.41293 -0.015293 -1.68873e-21)
(1.41333 0.00277264 3.4671e-21)
(1.38427 -0.026242 2.42892e-21)
(1.38622 -0.00985423 -1.23031e-20)
(1.35402 -0.0338992 -3.67633e-21)
(1.35758 -0.0193468 1.12813e-20)
(1.32219 -0.0382596 -7.66332e-21)
(1.32754 -0.0256668 -3.98271e-21)
(1.28833 -0.0392401 -7.74162e-21)
(1.29568 -0.0288646 -6.53578e-21)
(1.25159 -0.0366035 -1.69756e-20)
(1.26123 -0.0289028 -3.04095e-21)
(1.21061 -0.0297933 -1.57097e-20)
(1.22344 -0.0249413 -3.81419e-21)
(1.16324 -0.0176361 -1.06438e-21)
(1.18176 -0.0142743 -8.38775e-21)
(1.13323 0.00337914 5.50565e-21)
(0.137901 -0.0411715 -1.1439e-19)
(0.0453435 -0.0575998 0)
(0.405406 0.00878316 -1.71496e-19)
(0.313225 -0.0130721 -1.3986e-19)
(0.687728 0.0699933 -1.13661e-19)
(0.612873 0.0537832 -5.07552e-20)
(0.94263 0.125442 -6.32149e-20)
(0.888726 0.119138 -4.40492e-20)
(1.14569 0.163037 -2.33836e-21)
(1.10885 0.166439 -2.71758e-20)
(1.29146 0.179866 0)
(1.26625 0.19056 -2.71957e-21)
(1.38727 0.179362 0)
(1.36951 0.194906 -2.49455e-21)
(1.44491 0.167089 0)
(1.4319 0.185581 0)
(1.47527 0.14801 -3.5404e-20)
(1.4654 0.168134 0)
(1.48662 0.125681 -2.63785e-20)
(1.47895 0.146546 -3.11679e-20)
(1.48483 0.10242 9.31238e-21)
(1.4788 0.12342 -3.11227e-21)
(1.47404 0.0796888 0)
(1.46933 0.100402 2.37637e-21)
(1.45714 0.0584075 0)
(1.45361 0.078525 -3.32261e-21)
(1.43617 0.0391698 1.99087e-21)
(1.43379 0.0584346 -1.35891e-21)
(1.41246 0.0223804 5.46697e-21)
(1.41128 0.0405493 6.45325e-21)
(1.38684 0.00832203 -7.06911e-21)
(1.38698 0.0251583 -7.42312e-21)
(1.35976 -0.00283209 -3.36229e-21)
(1.36134 0.0124633 -6.06109e-21)
(1.33132 -0.0110111 1.08697e-20)
(1.33448 0.00258335 -7.39908e-21)
(1.30125 -0.0161733 -2.77794e-21)
(1.30625 -0.00441848 1.73682e-20)
(1.26893 -0.0182146 -1.78434e-21)
(1.27602 -0.00857275 1.56556e-20)
(1.23346 -0.0169242 1.02647e-20)
(1.24295 -0.0098532 -2.21016e-20)
(1.19357 -0.0118612 3.70156e-21)
(1.20631 -0.0073712 2.56067e-20)
(1.14735 -0.00213004 -1.79603e-21)
(1.1657 0.00170783 6.30858e-21)
(1.11841 0.017023 4.53449e-21)
(0.213548 -0.0326564 -2.21169e-20)
(0.10316 -0.0507549 1.00442e-19)
(0.514332 0.0298125 -1.88971e-20)
(0.412191 0.00684436 -4.79274e-20)
(0.809124 0.101955 1.81388e-20)
(0.732687 0.087131 -3.88678e-21)
(1.05204 0.160205 -9.54458e-21)
(1.00099 0.157117 3.16678e-20)
(1.22769 0.194218 -2.76889e-20)
(1.19451 0.200656 -4.97061e-21)
(1.34323 0.205736 -4.83339e-21)
(1.32117 0.218584 1.23917e-20)
(1.41346 0.201131 -2.5266e-21)
(1.39811 0.217861 -2.98332e-20)
(1.452 0.186599 0)
(1.4408 0.205481 0)
(1.46893 0.166669 4.58292e-21)
(1.4604 0.186588 -4.67022e-21)
(1.47115 0.144329 -7.81871e-21)
(1.46447 0.164565 6.88338e-21)
(1.46343 0.121486 -1.04043e-20)
(1.45811 0.141571 -1.24535e-20)
(1.44909 0.0993479 -1.00065e-21)
(1.44487 0.118974 4.5292e-21)
(1.43046 0.0786702 -4.74861e-21)
(1.4272 0.0976245 2.61869e-21)
(1.4091 0.0599314 3.03831e-21)
(1.4068 0.0780384 -2.14577e-22)
(1.38601 0.0434446 -6.33318e-21)
(1.38474 0.0605269 4.44564e-21)
(1.36169 0.0294234 -6.38626e-21)
(1.36158 0.0452903 1.17231e-21)
(1.33627 0.018007 -9.80391e-21)
(1.33751 0.0324696 1.50176e-21)
(1.30961 0.00927211 -9.2768e-22)
(1.3124 0.0221647 -3.94821e-20)
(1.28122 0.00328206 3.58864e-20)
(1.28586 0.0144495 1.21748e-20)
(1.25037 0.000146676 -5.79969e-21)
(1.25718 0.00930599 4.65236e-20)
(1.21616 4.69795e-05 -5.62734e-21)
(1.22547 0.00673801 -3.12724e-20)
(1.1774 0.00331979 2.84265e-20)
(1.19002 0.00768606 3.71348e-20)
(1.13246 0.0106267 1.27483e-20)
(1.15052 0.0151564 -6.47057e-21)
(1.10461 0.0282658 6.71437e-21)
(0.29375 -0.0151785 7.57604e-20)
(0.164636 -0.0377444 3.28508e-20)
(0.623746 0.0615 -3.17807e-20)
(0.51391 0.037785 -7.65727e-20)
(0.920075 0.141424 7.40758e-21)
(0.844994 0.128801 1.60749e-21)
(1.14093 0.197528 3.68545e-20)
(1.09425 0.198194 -4.51082e-21)
(1.28655 0.225135 3.63788e-20)
(1.25736 0.234654 -7.24612e-21)
(1.37519 0.230746 -1.18303e-20)
(1.35611 0.245638 1.51112e-20)
(1.42498 0.222216 -2.7927e-20)
(1.41177 0.240072 -3.59436e-20)
(1.449 0.205508 -4.61452e-21)
(1.43935 0.224809 0)
(1.45595 0.184572 -2.50735e-21)
(1.44855 0.204382 -4.67022e-21)
(1.45155 0.161937 2.36148e-21)
(1.44568 0.181681 2.09769e-21)
(1.43973 0.139214 2.44607e-21)
(1.43497 0.158543 3.1132e-22)
(1.42318 0.117414 7.9683e-21)
(1.41932 0.136124 2.15283e-21)
(1.40376 0.0971488 6.98121e-21)
(1.4007 0.115117 3.14229e-21)
(1.38264 0.0787767 1.11153e-21)
(1.38038 0.0959047 -2.52245e-21)
(1.3605 0.0625058 1.19663e-20)
(1.35912 0.0786822 0)
(1.33758 0.0484667 8.99818e-21)
(1.33723 0.0635487 1.20621e-20)
(1.31381 0.0367516 -2.78793e-20)
(1.31469 0.0505729 -8.17715e-21)
(1.28882 0.0274302 -2.65105e-20)
(1.29121 0.0398224 -7.40395e-21)
(1.26201 0.0205765 2.28246e-20)
(1.26626 0.0313645 -1.30786e-20)
(1.2326 0.016303 2.006e-20)
(1.23907 0.0251938 1.88946e-20)
(1.19967 0.014766 1.24285e-20)
(1.20874 0.0212913 -4.38227e-21)
(1.16215 0.0162138 1.52121e-20)
(1.17454 0.020647 1.69425e-20)
(1.11861 0.0211163 -1.27338e-20)
(1.13625 0.0265004 -2.75033e-20)
(1.09184 0.0376136 2.02546e-21)
(0.375817 0.0105044 -1.19743e-19)
(0.228469 -0.0193347 -6.80361e-20)
(0.728167 0.10199 -4.39933e-20)
(0.61422 0.0782479 1.44586e-20)
(1.01515 0.184913 -1.06126e-20)
(0.944052 0.175532 6.85497e-22)
(1.20846 0.235063 -4.93513e-20)
(1.16674 0.23969 -2.02803e-20)
(1.32572 0.255155 -2.93492e-20)
(1.30022 0.267662 -1.79101e-20)
(1.39205 0.25499 -8.25425e-21)
(1.37549 0.271812 7.1011e-21)
(1.42587 0.242735 -8.47831e-21)
(1.4144 0.26168 -2.07663e-22)
(1.43886 0.223815 0)
(1.43041 0.243562 0)
(1.43839 0.201673 0)
(1.43183 0.221443 0)
(1.42928 0.178497 0)
(1.42397 0.197841 2.71469e-21)
(1.41478 0.15567 0)
(1.41038 0.174349 1.65636e-21)
(1.39705 0.134033 -2.64992e-21)
(1.3934 0.151938 -3.93959e-21)
(1.37753 0.114057 -6.2683e-21)
(1.37457 0.131148 -8.77623e-21)
(1.35705 0.095971 -3.63176e-21)
(1.35478 0.112225 2.1298e-21)
(1.33602 0.0798681 0)
(1.33452 0.0952408 0)
(1.3145 0.065787 -5.06358e-21)
(1.3139 0.0801886 0)
(1.29225 0.0537599 1.23008e-20)
(1.29278 0.0670564 -5.10226e-21)
(1.2688 0.0438359 6.18483e-21)
(1.27077 0.0558651 1.75674e-20)
(1.24349 0.0360894 -1.70267e-20)
(1.24728 0.0466601 -1.15748e-20)
(1.2155 0.0306361 -5.44554e-21)
(1.22154 0.0394356 -5.41084e-21)
(1.18393 0.0276179 0)
(1.19264 0.0341628 1.43199e-20)
(1.14776 0.027218 -1.28071e-20)
(1.15981 0.0318689 -1.37108e-20)
(1.10579 0.0297538 -1.29579e-20)
(1.12281 0.0360877 1.22658e-20)
(1.08008 0.0455187 -1.4036e-20)
(0.457036 0.0430076 6.42825e-20)
(0.293157 0.00393749 1.30434e-20)
(0.823135 0.148445 6.05548e-20)
(0.708991 0.125842 2.68858e-20)
(1.09204 0.229767 -8.02709e-21)
(1.0264 0.224482 1.53424e-20)
(1.25658 0.271806 1.11744e-20)
(1.21953 0.280391 0)
(1.34904 0.284262 1.85561e-20)
(1.32663 0.29961 1.13644e-20)
(1.39741 0.27859 1.54125e-20)
(1.38282 0.297242 7.1011e-21)
(1.41882 0.262678 8.43544e-21)
(1.40863 0.282678 8.32846e-21)
(1.42345 0.241426 0)
(1.41583 0.26163 -5.21579e-22)
(1.41758 0.217882 2.68448e-21)
(1.41152 0.237648 -1.23375e-21)
(1.40528 0.193972 4.26924e-21)
(1.40024 0.212966 6.91408e-21)
(1.38923 0.170882 -2.33544e-21)
(1.38496 0.188968 -7.70131e-22)
(1.37113 0.149291 -1.00211e-20)
(1.36753 0.166448 -3.93959e-21)
(1.35202 0.129521 -4.09804e-22)
(1.34904 0.145785 -6.10151e-21)
(1.33243 0.111668 5.77933e-21)
(1.3301 0.127086 5.73153e-21)
(1.31256 0.0957097 0)
(1.31093 0.110303 0)
(1.29232 0.0815895 0)
(1.29152 0.0953289 0)
(1.27143 0.0692688 0)
(1.27165 0.0820676 0)
(1.24938 0.0587573 0)
(1.25093 0.0704781 0)
(1.22549 0.0501174 0)
(1.22878 0.0605666 0)
(1.19894 0.0434621 1.42281e-20)
(1.20444 0.0523013 0)
(1.16881 0.0389295 -1.88532e-22)
(1.17701 0.0456494 1.43199e-20)
(1.13415 0.036668 1.12541e-20)
(1.14568 0.0416592 -1.37108e-20)
(1.09395 0.03689 3.83551e-20)
(1.11012 0.0441663 3.76552e-20)
(1.06927 0.0524002 -2.35611e-20)
(0.534774 0.0810576 -2.59108e-20)
(0.357064 0.0320328 1.30434e-20)
(0.905662 0.198162 -1.61492e-20)
(0.79474 0.178268 -3.26398e-20)
(1.15075 0.274514 2.40003e-20)
(1.09103 0.273897 2.35621e-20)
(1.28801 0.307579 0)
(1.25497 0.320007 -4.75724e-21)
(1.35971 0.312558 0)
(1.33969 0.330624 2.01894e-21)
(1.39379 0.301527 0)
(1.3806 0.321941 0)
(1.40563 0.281919 -5.14879e-22)
(1.39623 0.302937 -1.06052e-22)
(1.40402 0.25819 -1.66133e-21)
(1.3968 0.278836 -5.21579e-22)
(1.39437 0.233083 2.99839e-21)
(1.38845 0.252843 -1.23375e-21)
(1.38014 0.208299 1.75502e-21)
(1.37508 0.226954 4.1994e-21)
(1.36347 0.184837 -2.45031e-21)
(1.35909 0.202347 -2.42649e-21)
(1.34564 0.163203 0)
(1.34189 0.179629 -2.31936e-21)
(1.32731 0.143568 0)
(1.3242 0.159011 2.17401e-21)
(1.30876 0.125901 0)
(1.30632 0.140468 0)
(1.29003 0.110074 0)
(1.28829 0.123844 -1.29265e-21)
(1.27098 0.0959376 0)
(1.27002 0.108948 0)
(1.25127 0.0833777 0)
(1.25126 0.0956042 0)
(1.23044 0.072344 0)
(1.23165 0.083701 0)
(1.20786 0.0628625 0)
(1.21066 0.0731858 0)
(1.18273 0.0550283 0)
(1.18762 0.0639832 0)
(1.15413 0.0489789 0)
(1.16168 0.0560317 0)
(1.12113 0.0448576 1.23299e-20)
(1.13197 0.0503291 0)
(1.083 0.0428361 3.29946e-20)
(1.09803 0.0508264 1.24038e-20)