/*--------------------------------*- C++ -*----------------------------------*\
  =========                 |
  \\      /  F ield         | OpenFOAM: The Open Source CFD Toolbox
   \\    /   O peration     | Website:  https://openfoam.org
    \\  /    A nd           | Version:  11
     \\/     M anipulation  |
\*---------------------------------------------------------------------------*/
FoamFile
{
    format      ascii;
    class       volScalarField;
    location    "1.72";
    object      k;
}
// * * * * * * * * * * * * * * * * * * * * * * * * * * * * * * * * * * * * * //

dimensions      [0 2 -2 0 0 0 0];

internalField   nonuniform List<scalar> 
2880
(
0.00570968
0.0298598
0.0697694
0.112667
0.156407
0.160801
0.0182734
0.0601643
0.105462
0.151599
0.194134
0.230976
0.0260592
0.0759041
0.122573
0.168359
0.203907
0.219983
0.0314219
0.0853865
0.131269
0.172603
0.196088
0.193816
0.0354199
0.0914965
0.135055
0.170243
0.180326
0.168589
0.0383517
0.0953781
0.135787
0.163837
0.163931
0.146378
0.0404327
0.0976325
0.134716
0.155879
0.150167
0.129221
0.0418234
0.0986053
0.132454
0.148071
0.138888
0.117578
0.042642
0.0985065
0.129482
0.141125
0.130022
0.109878
0.0429731
0.0974667
0.126085
0.135211
0.123415
0.104719
0.0428882
0.09558
0.122428
0.130233
0.118728
0.101291
0.0423705
0.092885
0.118613
0.126006
0.115597
0.0991682
0.0414648
0.0894079
0.114655
0.122476
0.113626
0.0980816
0.0402047
0.0851761
0.110524
0.119502
0.11259
0.0979731
0.0386528
0.080219
0.106128
0.116913
0.112399
0.0986357
0.0368069
0.0745961
0.101296
0.114538
0.112717
0.100208
0.0346524
0.0683865
0.0957524
0.112221
0.113524
0.102655
0.0321436
0.0616556
0.0891381
0.109666
0.114628
0.105981
0.0291557
0.0544657
0.0813118
0.106
0.115907
0.110141
0.0253832
0.0469271
0.0722132
0.100047
0.116857
0.114935
0.0235029
0.0393308
0.0617711
0.0903361
0.116972
0.119197
0.0216558
0.031806
0.0496873
0.0753467
0.113343
0.121001
0.0178755
0.0229154
0.0350903
0.0527055
0.0988709
0.116348
0.0050905
0.00767096
0.0137268
0.0233821
0.0667147
0.110732
0.195541
0.168238
0.118955
0.087726
0.0680691
0.0549344
0.0455588
0.0385675
0.03322
0.0290663
0.025805
0.023222
0.0211612
0.0195079
0.0181789
0.017116
0.0162824
0.0156604
0.0152494
0.0150614
0.0151094
0.0154226
0.016106
0.017174
0.212504
0.151757
0.105466
0.0781562
0.0613674
0.0500592
0.0418489
0.0356348
0.0308276
0.0270584
0.0240724
0.0216851
0.01976
0.0181949
0.0169138
0.0158611
0.0149981
0.0143015
0.0137629
0.0133876
0.0131918
0.0132189
0.0135874
0.014449
0.187374
0.128056
0.09138
0.0696548
0.055688
0.0458974
0.0386241
0.0330449
0.0286859
0.0252371
0.0224802
0.0202547
0.0184407
0.0169468
0.0157034
0.014657
0.013767
0.0130038
0.012348
0.0117906
0.0113338
0.0110114
0.010969
0.011504
0.15693
0.109699
0.0808063
0.0628873
0.050887
0.0422729
0.0357777
0.030737
0.0267579
0.0235795
0.0210152
0.0189259
0.017206
0.0157735
0.0145646
0.0135284
0.0126235
0.0118158
0.011076
0.0103778
0.00969859
0.00903472
0.00846453
0.00834242
0.131118
0.0952583
0.0723178
0.0572595
0.0468057
0.0391431
0.0332851
0.0286884
0.0250244
0.0220718
0.0196699
0.0176974
0.0160606
0.0146857
0.0135145
0.0124994
0.0116008
0.0107844
0.0100185
0.00926958
0.00849791
0.00766153
0.00674007
0.00546016
0.113372
0.0850212
0.0657897
0.0526496
0.0433437
0.0364351
0.0310963
0.0268656
0.0234635
0.0207003
0.0184368
0.0165664
0.0150055
0.0136878
0.0125602
0.0115793
0.0107093
0.00991954
0.00918274
0.00847097
0.00775034
0.00698586
0.00615823
0.00508193
0.101602
0.0775475
0.0605915
0.0488189
0.0404014
0.0340952
0.0291766
0.0252449
0.0220586
0.0194537
0.0173083
0.0155275
0.0140362
0.0127744
0.0116934
0.0107537
0.00992286
0.00917352
0.00848175
0.00782294
0.00716632
0.00648273
0.00576806
0.00489526
0.09356
0.0719047
0.0564085
0.0456329
0.0379023
0.0320748
0.0274941
0.0238047
0.0207952
0.0183219
0.0162765
0.0145739
0.0131456
0.0119363
0.0109013
0.0100039
0.00921405
0.00850679
0.00786048
0.00725296
0.00665665
0.00604868
0.00543445
0.00472472
0.0878955
0.0675472
0.0530195
0.0429841
0.0357859
0.0303355
0.0260231
0.0225275
0.019661
0.0172958
0.0153346
0.0136995
0.0123272
0.0111663
0.0101748
0.00931828
0.00856865
0.00790268
0.00730056
0.00674231
0.00620362
0.00566716
0.00514332
0.00456707
0.0838152
0.0641541
0.0502807
0.0407935
0.0340036
0.0288454
0.024742
0.0213984
0.0186456
0.0163682
0.0144768
0.0128993
0.0115764
0.0104594
0.00950843
0.00869099
0.00798035
0.00735476
0.00679595
0.00628577
0.00580288
0.00533408
0.00489115
0.00442568
0.0808904
0.0615338
0.0480916
0.039004
0.0325176
0.0275787
0.023633
0.0204053
0.0177406
0.0155327
0.0136984
0.0121696
0.0108898
0.00981241
0.00889928
0.00811912
0.00744643
0.00686059
0.00634446
0.00588135
0.00545217
0.00504643
0.00467494
0.00430132
0.0788842
0.0595705
0.0463847
0.037571
0.031297
0.0265139
0.0226814
0.0195378
0.0169386
0.0147842
0.0129955
0.0115072
0.0102648
0.00922319
0.00834531
0.00760086
0.00696524
0.0064186
0.00594455
0.00552726
0.00514918
0.0048012
0.00449186
0.00419378
0.0776649
0.058197
0.0451129
0.0364588
0.030317
0.0256339
0.0218752
0.0187877
0.0162338
0.0141182
0.0123647
0.0109095
0.00969924
0.00868973
0.00784469
0.0071345
0.0065351
0.00602704
0.00559419
0.00522101
0.00489081
0.00459483
0.00433872
0.00410214
0.0771723
0.0573759
0.0442441
0.035642
0.0295588
0.0249255
0.0212051
0.0181483
0.0156212
0.0135311
0.0118031
0.010374
0.00919085
0.00821
0.00739551
0.00671808
0.0061539
0.00568353
0.00529058
0.00495929
0.0046732
0.00442321
0.00421208
0.0040251
0.0773856
0.0570971
0.0437613
0.0351039
0.0290096
0.0243788
0.0206639
0.0176142
0.0150966
0.0130195
0.0113078
0.00989809
0.0087374
0.00778184
0.00699555
0.00634927
0.00581906
0.00538509
0.00503027
0.00473811
0.00449196
0.00428203
0.00410851
0.00396121
0.0783292
0.0573755
0.0436615
0.0348347
0.0286611
0.023987
0.0202464
0.0171811
0.0146567
0.0125804
0.0108761
0.0094795
0.00833656
0.0074029
0.00664235
0.00602538
0.00552757
0.00512828
0.00480928
0.00455306
0.00434253
0.00416706
0.00402478
0.00390905
0.08005
0.0582495
0.0439549
0.0348325
0.0285083
0.0237458
0.0199485
0.0168459
0.0142986
0.0122113
0.0105058
0.00911582
0.00798592
0.0070707
0.00633328
0.0057435
0.00527612
0.0049093
0.00462338
0.00439963
0.00422041
0.00407435
0.00395794
0.00386722
0.0826273
0.0597802
0.0446626
0.0351056
0.0285399
0.0236519
0.0197677
0.0166061
0.0140199
0.0119098
0.0101944
0.00880473
0.00768311
0.00678268
0.00606553
0.00550052
0.00506123
0.00472428
0.00446833
0.00427339
0.0041214
0.00400034
0.00390542
0.00383443
0.0861687
0.0620443
0.045817
0.035661
0.0287799
0.023694
0.0197019
0.0164598
0.0138185
0.0116739
0.00994003
0.00854409
0.00742579
0.00653631
0.00583628
0.0052933
0.0048794
0.00456937
0.00434004
0.00417025
0.00404165
0.00394186
0.00386495
0.00380948
0.0908046
0.0651298
0.0474492
0.0365086
0.0292143
0.0238931
0.0197421
0.0164051
0.013693
0.0115021
0.00974087
0.00833205
0.00721189
0.00632917
0.00564279
0.00511873
0.0047272
0.00444089
0.00423474
0.00408647
0.00397763
0.00389583
0.00383434
0.0037911
0.096667
0.0691251
0.0495848
0.0376573
0.0298443
0.0242304
0.0198936
0.0164358
0.0136415
0.0113928
0.00959566
0.00816721
0.00703975
0.00615925
0.00548258
0.00497386
0.0046013
0.00433535
0.00414897
0.00401878
0.00392627
0.00385929
0.00381116
0.00377761
0.103854
0.0741091
0.0522276
0.0391041
0.0306687
0.0247062
0.0201563
0.0165454
0.0136599
0.011345
0.0095036
0.00804879
0.00690841
0.00602525
0.00535387
0.00485645
0.00449904
0.00424987
0.00407996
0.00396486
0.00388585
0.00383078
0.00379306
0.00376748
0.112385
0.0801025
0.0553266
0.0408224
0.0316733
0.0253144
0.0205193
0.0167455
0.0137411
0.0113564
0.00946444
0.00797667
0.00681764
0.00592668
0.00525582
0.00476517
0.0044187
0.00418244
0.00402559
0.00392267
0.00385469
0.0038093
0.00377955
0.00376051
0.122254
0.086828
0.0587212
0.0427472
0.0328294
0.0260414
0.0209788
0.0170269
0.0138948
0.0114215
0.00947663
0.00795124
0.00676781
0.00586366
0.00518815
0.00469934
0.00435919
0.00413168
0.0039843
0.00389055
0.0038311
0.00379339
0.00377004
0.00375611
0.00572673
0.0255738
0.0600907
0.0868751
0.104475
0.116891
0.0185691
0.0496028
0.0824665
0.106427
0.123533
0.135385
0.027409
0.0688961
0.0993074
0.120404
0.134714
0.142295
0.0341616
0.0820297
0.110874
0.130023
0.141028
0.145246
0.0398124
0.0915313
0.119545
0.137175
0.145647
0.147494
0.0446379
0.0985859
0.126349
0.142924
0.149803
0.149917
0.0486029
0.103958
0.1318
0.147899
0.154064
0.152848
0.0517599
0.108075
0.136268
0.152506
0.158563
0.156513
0.0541755
0.111191
0.139989
0.156927
0.163399
0.161049
0.0559101
0.113447
0.143108
0.161236
0.168645
0.166537
0.0570118
0.114915
0.145699
0.165433
0.174338
0.17304
0.0575248
0.1156
0.14778
0.16946
0.180478
0.180588
0.0575557
0.115477
0.14931
0.173212
0.186998
0.18918
0.0572983
0.114415
0.150169
0.176588
0.19369
0.198781
0.0566601
0.11239
0.150172
0.179374
0.200301
0.20924
0.055552
0.10931
0.149083
0.181219
0.206488
0.220276
0.0538769
0.10505
0.14661
0.181667
0.211717
0.231503
0.0515154
0.0994828
0.142441
0.180309
0.215239
0.242244
0.0483116
0.0924869
0.136263
0.17635
0.216017
0.251593
0.0440791
0.0839897
0.127811
0.169238
0.213184
0.258295
0.0386113
0.073956
0.116797
0.158135
0.204381
0.260409
0.0317301
0.0621714
0.102578
0.141802
0.187241
0.25588
0.0228013
0.0471418
0.0828867
0.117617
0.15762
0.234336
0.00704298
0.0191199
0.0443872
0.0736474
0.111799
0.140323
0.132248
0.0929191
0.0620864
0.044756
0.0340905
0.0268672
0.0215267
0.0173857
0.0141213
0.0115496
0.00953661
0.00797047
0.00675963
0.00583673
0.00515096
0.0046586
0.00431969
0.0040965
0.00395488
0.00386729
0.00381394
0.00378194
0.00376346
0.00375339
0.136838
0.0965134
0.0650047
0.0467291
0.0354138
0.027774
0.0221565
0.0178212
0.0144172
0.0117452
0.00965739
0.00803675
0.00679024
0.00584527
0.00514474
0.00464317
0.0042999
0.00407628
0.00393653
0.00385204
0.00380235
0.00377415
0.00375917
0.00375181
0.137048
0.0984679
0.0674676
0.0486315
0.0367804
0.028754
0.0228656
0.0183342
0.0147854
0.0120062
0.00983955
0.0081605
0.00687018
0.00589248
0.00516901
0.00465244
0.00430011
0.00407112
0.00392913
0.00384446
0.00379581
0.00376955
0.00375672
0.0037511
0.136014
0.0997504
0.069663
0.0504994
0.0381986
0.0298112
0.0236577
0.0189283
0.0152296
0.0123366
0.0100838
0.0083393
0.00699918
0.00598339
0.00523054
0.00469135
0.00432226
0.00408214
0.00393339
0.00384511
0.00379493
0.00376851
0.003756
0.00375087
0.135495
0.101081
0.0718201
0.0524082
0.0396971
0.0309605
0.0245419
0.0196104
0.0157559
0.0127421
0.0103954
0.0085778
0.00718035
0.00611903
0.00532949
0.00476069
0.00436839
0.00411112
0.00395059
0.00385477
0.00379994
0.00377083
0.00375696
0.00375114
0.135982
0.102847
0.0741426
0.0544476
0.0413173
0.0322237
0.0255319
0.0203905
0.0163724
0.0132295
0.0107805
0.00888145
0.00741861
0.006304
0.00547024
0.00486446
0.00444179
0.00416078
0.0039829
0.00387509
0.00381222
0.00377744
0.00376016
0.00375222
0.137633
0.105294
0.0768019
0.0567097
0.0431075
0.0336279
0.0266448
0.0212807
0.0170884
0.0138068
0.0112461
0.00925653
0.00771971
0.00654365
0.00565784
0.00500739
0.00454679
0.00423488
0.00403329
0.00390823
0.00383309
0.00378948
0.00376628
0.00375489
0.140517
0.108581
0.0799461
0.0592872
0.0451216
0.0352047
0.0279006
0.0222952
0.017915
0.0144829
0.0118
0.0097101
0.00809011
0.00684402
0.00589803
0.00519503
0.00468868
0.0043382
0.0041058
0.00395738
0.00386495
0.00380878
0.00377683
0.00375984
0.144684
0.112844
0.0837172
0.0622767
0.0474185
0.0369895
0.0293219
0.0234497
0.0188641
0.0152678
0.0124507
0.0102498
0.00853688
0.00721177
0.00619723
0.00543366
0.00487359
0.00447655
0.0042056
0.00402682
0.00391119
0.0038377
0.00379338
0.00376802
0.150195
0.118227
0.0882617
0.0657828
0.0500643
0.0390226
0.0309341
0.0247613
0.0199484
0.0161717
0.0132072
0.0108838
0.0090676
0.00765406
0.00656236
0.00573011
0.00510837
0.00465664
0.00433897
0.00412203
0.00397622
0.00387934
0.00381752
0.0037803
0.157132
0.12489
0.0937427
0.0699243
0.0531354
0.0413506
0.0327661
0.0262492
0.0211816
0.0172056
0.0140791
0.0116207
0.00969036
0.00817867
0.00700099
0.00609193
0.00540064
0.00488617
0.00451332
0.00424965
0.00406534
0.00393737
0.0038515
0.0037977
0.165589
0.133019
0.100351
0.0748423
0.0567231
0.0440289
0.0348512
0.0279346
0.0225787
0.018381
0.0150759
0.0124695
0.0104137
0.008794
0.00752148
0.00652753
0.00575898
0.00517386
0.00473724
0.00441745
0.00418484
0.00401644
0.00389904
0.00382226
0.175666
0.142814
0.108309
0.0807099
0.06094
0.0471256
0.0372294
0.0298417
0.0241556
0.0197097
0.0162077
0.0134392
0.0112466
0.00950893
0.00813278
0.00704595
0.00619257
0.00552904
0.00502004
0.00463435
0.00434275
0.00412319
0.00396465
0.00385623
0.187446
0.154487
0.117871
0.0877336
0.0659243
0.0507246
0.039949
0.0319989
0.0259303
0.0212044
0.0174847
0.0145392
0.0121979
0.0103324
0.00884398
0.00765642
0.00671076
0.00596124
0.00537147
0.00491012
0.00454827
0.00426533
0.00405352
0.00390179
0.200959
0.168245
0.12931
0.0961538
0.0718433
0.0549296
0.0430699
0.0344403
0.0279232
0.0228788
0.0189171
0.015778
0.013276
0.0112729
0.00966383
0.00836792
0.00732274
0.00647989
0.00580132
0.00525484
0.0048113
0.00445143
0.00417169
0.00396152
0.216137
0.184269
0.142895
0.106238
0.0788956
0.0598665
0.046666
0.0372078
0.0301586
0.0247476
0.0205151
0.0171642
0.0144885
0.0123381
0.0106002
0.00918876
0.00803719
0.00709407
0.00631909
0.00567847
0.00514185
0.00469067
0.00432602
0.0040384
0.23265
0.202714
0.158837
0.118258
0.0873081
0.0656871
0.0508289
0.0403533
0.0326655
0.0268278
0.0222896
0.0187052
0.015842
0.0135343
0.0116599
0.0101262
0.00886192
0.00781215
0.0069337
0.00619039
0.00554962
0.00499232
0.00452388
0.00413568
0.250249
0.223291
0.177185
0.132431
0.0973151
0.0725661
0.0556689
0.0439407
0.0354797
0.0291395
0.0242521
0.0204088
0.0173421
0.0148667
0.0128481
0.011186
0.0098035
0.00864142
0.00765312
0.00679918
0.0060436
0.00536526
0.00477264
0.00425661
0.268379
0.245325
0.197758
0.148847
0.109121
0.0806885
0.0613153
0.0480482
0.0386452
0.0317073
0.0264167
0.0222829
0.018994
0.0163391
0.0141686
0.0123724
0.0108669
0.00958778
0.00848413
0.0075124
0.00663196
0.00581771
0.00507919
0.00440392
0.286052
0.267595
0.22014
0.167376
0.122837
0.0902243
0.0679056
0.0527676
0.0422173
0.0345627
0.0288009
0.0243376
0.0208034
0.0179553
0.0156243
0.0136884
0.0120556
0.0106556
0.0094321
0.00833651
0.00732204
0.00635733
0.00544987
0.00457923
0.301783
0.288462
0.243242
0.187485
0.138372
0.101278
0.0755696
0.0581988
0.0462608
0.0377448
0.0314276
0.026586
0.0227781
0.0197197
0.0172182
0.0151362
0.0133721
0.0118479
0.0105012
0.00927691
0.00812059
0.00699165
0.0058909
0.00478271
0.313132
0.305457
0.265216
0.208108
0.1553
0.113808
0.0843948
0.0644382
0.0508481
0.0413008
0.0343264
0.0290463
0.0249292
0.0216396
0.0189549
0.0167194
0.0148194
0.013168
0.0116953
0.0103388
0.00903452
0.00772905
0.00640944
0.00501274
0.31222
0.314756
0.283667
0.227726
0.172789
0.127534
0.0943764
0.0715579
0.0560516
0.0452851
0.0375343
0.0317434
0.0272738
0.0237272
0.0208439
0.0184458
0.0164044
0.0146224
0.0130211
0.0115294
0.0100727
0.00858089
0.0070175
0.00526826
0.270095
0.310465
0.292886
0.244592
0.189653
0.141878
0.105357
0.0795781
0.0619337
0.0497559
0.0410956
0.0347098
0.0298361
0.0260018
0.022902
0.0203312
0.0181428
0.0162271
0.0144951
0.0128659
0.0112533
0.00956834
0.0077376
0.00555258
0.00786843
0.0161969
0.0291559
0.0362732
0.0383746
0.045932
0.0238947
0.0415074
0.0589493
0.0641648
0.0633855
0.0716499
0.0322796
0.0552041
0.075029
0.0804342
0.0793101
0.0844206
0.0385019
0.0663064
0.0873877
0.0931951
0.0920598
0.0955468
0.0434303
0.076059
0.0978638
0.104291
0.103656
0.106067
0.047421
0.0846141
0.106937
0.114351
0.114822
0.116841
0.050711
0.0920328
0.114841
0.123607
0.125818
0.128225
0.0534412
0.0983866
0.121734
0.13219
0.136628
0.140152
0.0556994
0.103742
0.127719
0.140111
0.147076
0.152458
0.0575523
0.10814
0.132848
0.147304
0.15697
0.16488
0.0590648
0.111586
0.137122
0.153656
0.166054
0.176808
0.060209
0.114081
0.140509
0.159017
0.174026
0.187674
0.0606958
0.115687
0.142947
0.163224
0.180557
0.196911
0.0605559
0.116389
0.14435
0.166108
0.185328
0.203974
0.0597036
0.116126
0.144587
0.167404
0.187963
0.208277
0.0581098
0.114809
0.143668
0.167197
0.188391
0.209437
0.0557289
0.112312
0.14141
0.165272
0.186627
0.207775
0.0525014
0.108474
0.137646
0.161552
0.182504
0.202997
0.0483613
0.103073
0.132164
0.155915
0.176054
0.195332
0.043253
0.0957736
0.124652
0.148163
0.16732
0.1851
0.0371733
0.0860063
0.114608
0.137936
0.156193
0.172578
0.0299592
0.0727945
0.101074
0.124453
0.14209
0.157357
0.0208976
0.0535456
0.0816686
0.105765
0.123405
0.136534
0.00599491
0.0240057
0.051957
0.0786077
0.0988795
0.117281
0.198027
0.290344
0.289875
0.256748
0.204574
0.156058
0.11701
0.0884393
0.0685339
0.0547708
0.0450612
0.0379856
0.0326488
0.0284915
0.0251561
0.0224036
0.0200662
0.0180184
0.016159
0.0143953
0.0126286
0.0107486
0.0086272
0.00589209
0.144665
0.25684
0.280317
0.260432
0.216089
0.169143
0.128854
0.0979814
0.0758506
0.0603786
0.0494847
0.0416171
0.0357502
0.0312311
0.0276414
0.0247037
0.0222253
0.0200634
0.0181028
0.0162377
0.0143551
0.0123195
0.009929
0.0065951
0.115557
0.22267
0.2632
0.256953
0.224575
0.180668
0.140446
0.107983
0.0838367
0.066611
0.054417
0.0456517
0.0391798
0.0342539
0.0303898
0.027268
0.0246702
0.022439
0.0204527
0.0186064
0.016799
0.0149473
0.0131273
0.0119702
0.112545
0.194762
0.244013
0.248855
0.228503
0.189955
0.151294
0.118155
0.0923879
0.07347
0.0598979
0.0501313
0.0429693
0.0375795
0.0334106
0.0300993
0.0274042
0.0251633
0.0232694
0.0216547
0.0202819
0.0191601
0.0184488
0.0185299
0.119502
0.175225
0.224982
0.237451
0.226727
0.196763
0.160901
0.12812
0.101317
0.0809064
0.0659429
0.0550864
0.0471407
0.0412131
0.0366903
0.0331657
0.030376
0.0281572
0.0264171
0.0251145
0.0242397
0.0238108
0.0238977
0.0245013
0.130564
0.164924
0.208511
0.225368
0.222178
0.201305
0.169046
0.137545
0.110384
0.0888152
0.0725344
0.0605332
0.051711
0.0451583
0.0402155
0.0364371
0.0335385
0.0313503
0.0297826
0.0287925
0.0283529
0.0284311
0.0289774
0.0298415
0.141892
0.16315
0.196234
0.213571
0.214162
0.20172
0.175006
0.145946
0.119262
0.097019
0.079609
0.0664678
0.056694
0.049424
0.0439808
0.0398901
0.0368463
0.0346673
0.03325
0.0325273
0.0324326
0.032846
0.0337101
0.0347127
0.153171
0.166878
0.189088
0.203029
0.20579
0.199337
0.179256
0.153076
0.127602
0.105267
0.0870417
0.0728541
0.0620955
0.0540251
0.0479919
0.0435112
0.0402595
0.0380351
0.0367094
0.0361808
0.036322
0.036983
0.0380566
0.0391571
0.164878
0.17588
0.189227
0.195536
0.197839
0.19479
0.181023
0.15862
0.135071
0.113266
0.0946466
0.0796109
0.0679022
0.0589771
0.0522657
0.0473016
0.0437528
0.041397
0.040075
0.0396476
0.0399212
0.0407518
0.0419675
0.0431432
0.177346
0.189194
0.193534
0.192869
0.191535
0.189038
0.180043
0.162117
0.141252
0.120663
0.102169
0.0865976
0.0740655
0.0642849
0.0568252
0.0512774
0.0473208
0.04472
0.0432885
0.0428529
0.0431666
0.0440781
0.0453825
0.0466161
0.190451
0.203845
0.203609
0.195724
0.18863
0.18453
0.178054
0.163939
0.145949
0.127138
0.109326
0.0936236
0.0804944
0.0699321
0.0616934
0.0554703
0.0509831
0.0480015
0.0463243
0.0457535
0.046014
0.046907
0.0482449
0.0495172
0.203455
0.218592
0.218212
0.20468
0.190408
0.182413
0.175484
0.1642
0.149151
0.132417
0.115818
0.100452
0.0870472
0.0758669
0.0668819
0.0599234
0.0547871
0.0512759
0.0491956
0.0483396
0.0484466
0.0492043
0.0505096
0.0517956
0.215353
0.232664
0.23449
0.220763
0.197529
0.183932
0.174992
0.164289
0.151306
0.136572
0.121395
0.106822
0.0935266
0.0819841
0.0723708
0.0646772
0.0588046
0.0546199
0.0519663
0.0506541
0.0504612
0.0509799
0.0521509
0.0534155
0.225117
0.24503
0.250811
0.239617
0.212719
0.19048
0.176935
0.165338
0.153174
0.139942
0.126119
0.112518
0.0997084
0.0881227
0.07809
0.0697483
0.0631165
0.0581494
0.0547572
0.0528012
0.0520927
0.0523034
0.0531753
0.0543653
0.231791
0.254547
0.264883
0.257765
0.233383
0.20526
0.184169
0.169212
0.1561
0.1433
0.130404
0.117665
0.105464
0.0941159
0.0839235
0.0751095
0.0677881
0.0620029
0.0577464
0.0549578
0.0535129
0.053227
0.053676
0.0546807
0.234213
0.259769
0.274586
0.27284
0.254842
0.226144
0.199708
0.178938
0.162479
0.148286
0.135207
0.122815
0.111043
0.0999789
0.0898091
0.080721
0.0728578
0.0663162
0.0611551
0.0573952
0.0550057
0.0538924
0.0538868
0.0544739
0.233012
0.260143
0.278251
0.282751
0.272169
0.248297
0.220843
0.195796
0.174812
0.157378
0.14247
0.129266
0.117245
0.106156
0.0959464
0.0866666
0.0783984
0.0712247
0.0652202
0.0604498
0.0569617
0.0547769
0.0538922
0.0540327
0.227542
0.254924
0.275736
0.28549
0.28196
0.26633
0.242559
0.217117
0.193265
0.172351
0.154457
0.139113
0.125727
0.113823
0.103106
0.0934226
0.0847134
0.0769716
0.0702208
0.0645049
0.0598855
0.0564447
0.0543183
0.0536903
0.218186
0.244351
0.266332
0.279984
0.283101
0.275692
0.259012
0.237357
0.214262
0.191996
0.171769
0.153949
0.138399
0.124794
0.112802
0.102153
0.0926554
0.0841815
0.0766581
0.0700537
0.0643738
0.059662
0.0560476
0.0541501
0.205738
0.229341
0.250581
0.26689
0.275113
0.274583
0.266052
0.250781
0.231876
0.211553
0.191464
0.172612
0.155456
0.140099
0.126452
0.114345
0.103591
0.0940207
0.0854938
0.0779048
0.0711871
0.0653037
0.0602446
0.0565429
0.19127
0.211397
0.230543
0.247455
0.259033
0.263986
0.262037
0.253918
0.240943
0.225117
0.207927
0.190529
0.173702
0.157904
0.143361
0.130135
0.11819
0.10744
0.0977779
0.0890949
0.0813036
0.0743148
0.068094
0.0624479
0.17604
0.192494
0.208735
0.22452
0.237448
0.245647
0.248499
0.246205
0.239288
0.228717
0.216009
0.20208
0.187689
0.173424
0.159679
0.146699
0.134604
0.123431
0.11317
0.10378
0.0952249
0.0873999
0.0804412
0.0733286
0.161359
0.174725
0.187871
0.201522
0.213908
0.223298
0.228642
0.229927
0.227564
0.221884
0.21366
0.203817
0.192998
0.181711
0.170378
0.159293
0.148651
0.138509
0.128926
0.11998
0.111703
0.10402
0.0971646
0.0900599
0.148347
0.159928
0.170164
0.181506
0.192353
0.201149
0.206977
0.209735
0.209646
0.20713
0.202334
0.196036
0.1887
0.180729
0.172445
0.16414
0.156088
0.148505
0.141329
0.134457
0.127999
0.122041
0.116762
0.11193
0.00348967
0.00881865
0.026689
0.0540553
0.0847696
0.115627
0.0146584
0.0227575
0.0438408
0.0701159
0.0974426
0.122443
0.0192996
0.0335973
0.0554098
0.0793338
0.103248
0.123313
0.0218483
0.0406581
0.0623153
0.0843233
0.10536
0.122095
0.023698
0.045559
0.0667215
0.0871276
0.105846
0.120347
0.0249765
0.0491359
0.0695882
0.0886304
0.10554
0.118457
0.0258673
0.0517474
0.0714056
0.0892651
0.104748
0.116535
0.0269232
0.0535366
0.07245
0.0892581
0.103579
0.114507
0.02772
0.0546649
0.0728873
0.0887377
0.102068
0.112291
0.0282427
0.0552348
0.0728302
0.0877831
0.100227
0.109824
0.0284932
0.0553136
0.0723378
0.0864471
0.0980633
0.107064
0.0284829
0.054943
0.0714628
0.084767
0.09559
0.104008
0.0282203
0.054136
0.0702318
0.082768
0.0928227
0.100684
0.0278182
0.052878
0.0686542
0.0804652
0.0897795
0.097147
0.0272447
0.051171
0.066723
0.0778644
0.0864769
0.0934634
0.0264728
0.0489893
0.0644177
0.0749616
0.0829282
0.0897051
0.0254575
0.0463204
0.0617208
0.0717461
0.079139
0.0859355
0.0249656
0.043343
0.0586475
0.0682045
0.0751009
0.0822133
0.0244595
0.0403627
0.0552378
0.0643179
0.0707826
0.0786353
0.0235974
0.0374526
0.0514689
0.0600295
0.0661015
0.0749562
0.0222378
0.0343178
0.0471296
0.0551601
0.060861
0.0708305
0.0203635
0.030441
0.0416388
0.0492214
0.0544305
0.0657126
0.0166074
0.0243281
0.0332823
0.0407292
0.0448683
0.0585347
0.00453128
0.00910201
0.0148877
0.0221448
0.026287
0.0348606
0.140594
0.148874
0.15681
0.166327
0.175529
0.18299
0.187999
0.190548
0.191026
0.189669
0.186691
0.182586
0.17773
0.172438
0.166971
0.161537
0.156288
0.151398
0.147152
0.143638
0.140657
0.138127
0.136099
0.134886
0.136782
0.141494
0.147932
0.156389
0.164597
0.171021
0.174968
0.176703
0.176705
0.1752
0.172581
0.169254
0.165547
0.161737
0.158056
0.154682
0.151744
0.14933
0.147452
0.146127
0.145377
0.145187
0.145331
0.145857
0.13373
0.136936
0.142949
0.15128
0.159342
0.165548
0.169176
0.1706
0.170339
0.168654
0.166003
0.162788
0.159343
0.155936
0.152787
0.150066
0.147886
0.146313
0.145355
0.144975
0.145048
0.145463
0.146055
0.146685
0.131036
0.134269
0.140699
0.149471
0.15791
0.164457
0.168385
0.170004
0.169902
0.168353
0.165833
0.162747
0.159432
0.156149
0.153096
0.150425
0.148242
0.146599
0.145498
0.144891
0.144679
0.144718
0.144874
0.145025
0.128784
0.132783
0.14005
0.149736
0.159297
0.166966
0.172069
0.174684
0.175429
0.174679
0.172851
0.170345
0.167474
0.164475
0.161525
0.158746
0.156221
0.153998
0.152095
0.150505
0.149207
0.148185
0.147427
0.146881
0.126833
0.131921
0.140414
0.151606
0.162787
0.172078
0.178789
0.182955
0.185006
0.1855
0.184809
0.183301
0.181267
0.178902
0.17636
0.173743
0.17112
0.168535
0.16602
0.16361
0.161365
0.159392
0.15781
0.156602
0.124944
0.131268
0.141222
0.154094
0.16703
0.178027
0.186321
0.191958
0.19535
0.196982
0.197308
0.196766
0.195643
0.194031
0.192095
0.189929
0.187584
0.185088
0.18246
0.179732
0.176978
0.174344
0.172004
0.169937
0.122975
0.130472
0.141821
0.156185
0.170345
0.182035
0.190683
0.196522
0.200115
0.201985
0.202579
0.202307
0.201501
0.200149
0.198407
0.19639
0.194136
0.191657
0.188956
0.186047
0.182986
0.179914
0.177056
0.174228
0.120778
0.129234
0.141658
0.156781
0.17108
0.182523
0.190748
0.196146
0.199322
0.2008
0.201059
0.200508
0.199451
0.197881
0.195907
0.193681
0.191217
0.18851
0.18554
0.18229
0.178772
0.175051
0.171468
0.167308
0.118242
0.127387
0.140535
0.155756
0.168823
0.177962
0.183618
0.186509
0.187434
0.186895
0.185609
0.183667
0.18126
0.178578
0.175679
0.17259
0.169304
0.165793
0.162027
0.157945
0.153551
0.148691
0.144105
0.137807
0.115321
0.124941
0.138491
0.152684
0.162163
0.166351
0.16695
0.165412
0.162776
0.159312
0.155458
0.151406
0.147266
0.143085
0.138851
0.134523
0.130039
0.125355
0.120438
0.115236
0.10989
0.103867
0.0984305
0.0901957
0.112058
0.122168
0.136183
0.148048
0.15159
0.148784
0.143313
0.137002
0.130645
0.124416
0.118387
0.112585
0.107028
0.101692
0.096429
0.0911215
0.0857738
0.0804162
0.0751053
0.0698925
0.0648884
0.0601223
0.0563709
0.0522998
0.108603
0.119761
0.134935
0.142726
0.139373
0.129598
0.119373
0.110337
0.102122
0.0945439
0.0875091
0.0810137
0.0750297
0.0694597
0.0643404
0.0597033
0.0555162
0.0517581
0.0484242
0.045506
0.0430102
0.0409326
0.039498
0.0384439
0.105187
0.118647
0.135131
0.137217
0.127942
0.113765
0.102983
0.0938405
0.0855141
0.0777984
0.0707647
0.0644541
0.0588434
0.0539032
0.0495959
0.0458666
0.0426561
0.0399226
0.0376402
0.0357996
0.0344151
0.0335395
0.0332495
0.033489
0.102115
0.119794
0.136219
0.132646
0.117451
0.104628
0.0949351
0.0861097
0.0777108
0.0698721
0.0628035
0.0565835
0.0511879
0.046578
0.0426781
0.0394023
0.036676
0.0344462
0.0326803
0.0313775
0.030566
0.0303145
0.0305631
0.0315369
0.0998371
0.124039
0.136468
0.127566
0.110953
0.100092
0.0904126
0.0808683
0.0718359
0.0636701
0.0565525
0.0504879
0.0454048
0.0411771
0.0376784
0.0348058
0.032484
0.0306691
0.0293504
0.0285471
0.0282832
0.0284665
0.0291311
0.0306424
0.0989122
0.130234
0.134451
0.121477
0.108236
0.0973259
0.0862403
0.0755259
0.0659295
0.0576344
0.050669
0.0449088
0.0401806
0.0363261
0.0332132
0.0307381
0.0288292
0.0274493
0.0265927
0.026279
0.0264174
0.0269641
0.028118
0.0299684
0.099747
0.13443
0.131581
0.118922
0.106814
0.0942655
0.0815413
0.0701035
0.0603628
0.0522855
0.0457055
0.0403881
0.0361137
0.0326983
0.0299978
0.0279099
0.0263689
0.025342
0.024823
0.0248118
0.0251576
0.0260186
0.0274275
0.0293347
0.101492
0.13535
0.128793
0.11843
0.105214
0.0902945
0.0763664
0.0646751
0.0551716
0.0475604
0.041495
0.036676
0.0328606
0.0298583
0.0275254
0.0257609
0.0245045
0.0237307
0.023439
0.0235681
0.0240992
0.025129
0.0266086
0.0284735
0.100814
0.134354
0.127987
0.118903
0.102323
0.0851627
0.0707504
0.0593281
0.0503953
0.0433891
0.0378838
0.033559
0.0301681
0.0275235
0.0254886
0.0239719
0.0229211
0.0223153
0.0221543
0.0223644
0.0229889
0.0240472
0.0255082
0.0272781
0.0982682
0.133562
0.13029
0.119119
0.0976124
0.0791511
0.0650227
0.0543304
0.0461225
0.03976
0.0348059
0.0309406
0.0279245
0.0255805
0.0237832
0.0224503
0.0215358
0.0210216
0.020908
0.0211365
0.0217573
0.0227664
0.024146
0.0257928
0.108552
0.138274
0.135209
0.115812
0.0908906
0.0726965
0.0595344
0.0497451
0.0423048
0.0365779
0.0321379
0.0286801
0.0259812
0.0238792
0.0222608
0.0210523
0.0202129
0.0197277
0.0195987
0.0197918
0.0203374
0.0212418
0.0224985
0.024011
0.130057
0.149818
0.137792
0.107542
0.083112
0.0663432
0.0544125
0.0455948
0.0389138
0.0337777
0.0297931
0.0266817
0.0242423
0.0223293
0.0208411
0.0197108
0.018901
0.0183979
0.0182049
0.0183143
0.0187289
0.0194826
0.0205846
0.0219579
0.15431
0.162201
0.134006
0.0980882
0.0754176
0.0603843
0.0497474
0.0418778
0.0359017
0.0312923
0.0276999
0.0248781
0.0226484
0.0208818
0.0194865
0.0184008
0.0175885
0.017035
0.0167432
0.0167258
0.0169687
0.0175269
0.0184431
0.0196728
)
;

boundaryField
{
    rotor
    {
        type            kqRWallFunction;
        value           nonuniform List<scalar> 
144
(
0.00570968
0.0298598
0.0697694
0.112667
0.156407
0.160801
0.00570968
0.0182734
0.0260592
0.0314219
0.0354199
0.0383517
0.0404327
0.0418234
0.042642
0.0429731
0.0428882
0.0423705
0.0414648
0.0402047
0.0386528
0.0368069
0.0346524
0.0321436
0.0291557
0.0253832
0.0235029
0.0216558
0.0178755
0.0050905
0.0050905
0.00767096
0.0137268
0.0233821
0.0667147
0.110732
0.00572673
0.0255738
0.0600907
0.0868751
0.104475
0.116891
0.00572673
0.0185691
0.027409
0.0341616
0.0398124
0.0446379
0.0486029
0.0517599
0.0541755
0.0559101
0.0570118
0.0575248
0.0575557
0.0572983
0.0566601
0.055552
0.0538769
0.0515154
0.0483116
0.0440791
0.0386113
0.0317301
0.0228013
0.00704298
0.00704298
0.0191199
0.0443872
0.0736474
0.111799
0.140323
0.00786843
0.0161969
0.0291559
0.0362732
0.0383746
0.045932
0.00786843
0.0238947
0.0322796
0.0385019
0.0434303
0.047421
0.050711
0.0534412
0.0556994
0.0575523
0.0590648
0.060209
0.0606958
0.0605559
0.0597036
0.0581098
0.0557289
0.0525014
0.0483613
0.043253
0.0371733
0.0299592
0.0208976
0.00599491
0.00599491
0.0240057
0.051957
0.0786077
0.0988795
0.117281
0.00348967
0.00881865
0.026689
0.0540553
0.0847696
0.115627
0.00348967
0.0146584
0.0192996
0.0218483
0.023698
0.0249765
0.0258673
0.0269232
0.02772
0.0282427
0.0284932
0.0284829
0.0282203
0.0278182
0.0272447