/*--------------------------------*- C++ -*----------------------------------*\
  =========                 |
  \\      /  F ield         | OpenFOAM: The Open Source CFD Toolbox
   \\    /   O peration     | Website:  https://openfoam.org
    \\  /    A nd           | Version:  11
     \\/     M anipulation  |
\*---------------------------------------------------------------------------*/
FoamFile
{
    format      ascii;
    class       surfaceScalarField;
    location    "1.72";
    object      meshPhi;
}
// * * * * * * * * * * * * * * * * * * * * * * * * * * * * * * * * * * * * * //

dimensions      [0 3 -1 0 0 0 0];

internalField   nonuniform List<scalar> 
5640
(
1.36953e-16
9.81747e-07
2.42083e-16
1.37445e-06
3.77008e-16
1.76715e-06
-1.33935e-15
2.15984e-06
-3.68146e-15
2.55254e-06
2.94524e-06
5.95139e-15
1.865e-18
9.81747e-07
-3.88794e-16
1.37445e-06
-2.60413e-15
1.76715e-06
1.94359e-15
2.15984e-06
8.06634e-15
2.55254e-06
2.94524e-06
-9.02957e-15
-1.16435e-16
9.81747e-07
1.86389e-16
1.37445e-06
-1.56232e-15
1.76715e-06
-4.21248e-15
2.15984e-06
-7.49834e-15
2.55254e-06
2.94524e-06
7.7223e-16
8.69515e-17
9.81747e-07
-1.01949e-16
1.37445e-06
2.69322e-15
1.76715e-06
7.44295e-15
2.15984e-06
3.25996e-15
2.55254e-06
2.94524e-06
-2.798e-15
-4.83699e-17
9.81747e-07
3.95456e-17
1.37445e-06
1.94334e-16
1.76715e-06
-1.80603e-15
2.15984e-06
-4.20835e-15
2.55254e-06
2.94524e-06
5.01341e-15
-1.801e-16
9.81747e-07
4.34494e-18
1.37445e-06
-1.84772e-15
1.76715e-06
-3.88609e-15
2.15984e-06
3.15726e-15
2.55254e-06
2.94524e-06
4.98303e-16
2.54e-16
9.81747e-07
2.5541e-16
1.37445e-06
2.06607e-15
1.76715e-06
4.50412e-15
2.15984e-06
-2.30998e-15
2.55254e-06
2.94524e-06
5.41074e-16
2.16595e-17
9.81747e-07
-3.21668e-16
1.37445e-06
-1.14887e-15
1.76715e-06
-5.28568e-15
2.15984e-06
-3.76756e-16
2.55254e-06
2.94524e-06
-5.63975e-15
-1.43401e-16
9.81747e-07
1.66357e-16
1.37445e-06
4.1912e-15
1.76715e-06
6.34948e-15
2.15984e-06
-8.05688e-16
2.55254e-06
2.94524e-06
8.39235e-16
-6.88088e-17
9.81747e-07
-9.20323e-17
1.37445e-06
-2.76938e-15
1.76715e-06
-3.68759e-16
2.15984e-06
-1.45082e-15
2.55254e-06
2.94524e-06
-1.76569e-16
1.66325e-16
9.81747e-07
-8.86666e-17
1.37445e-06
5.697e-16
1.76715e-06
-2.10355e-15
2.15984e-06
9.66003e-15
2.55254e-06
2.94524e-06
5.29022e-15
-1.7776e-16
9.81747e-07
-2.04836e-17
1.37445e-06
-3.45396e-16
1.76715e-06
-4.17258e-15
2.15984e-06
-2.62231e-15
2.55254e-06
2.94524e-06
5.36963e-15
1.77807e-16
9.81747e-07
2.05077e-17
1.37445e-06
3.4545e-16
1.76715e-06
4.17265e-15
2.15984e-06
2.62238e-15
2.55254e-06
2.94524e-06
-5.36935e-15
-1.66323e-16
9.81747e-07
8.87237e-17
1.37445e-06
-5.69687e-16
1.76715e-06
2.10346e-15
2.15984e-06
-9.65992e-15
2.55254e-06
2.94524e-06
-5.29016e-15
6.8815e-17
9.81747e-07
9.21051e-17
1.37445e-06
2.76933e-15
1.76715e-06
3.68931e-16
2.15984e-06
1.45092e-15
2.55254e-06
2.94524e-06
1.76715e-16
1.43433e-16
9.81747e-07
-1.66351e-16
1.37445e-06
-4.19115e-15
1.76715e-06
-6.34935e-15
2.15984e-06
8.05688e-16
2.55254e-06
2.94524e-06
-8.39109e-16
-2.16436e-17
9.81747e-07
3.21647e-16
1.37445e-06
1.14897e-15
1.76715e-06
5.28569e-15
2.15984e-06
3.76693e-16
2.55254e-06
2.94524e-06
5.63976e-15
-2.53956e-16
9.81747e-07
-2.55425e-16
1.37445e-06
-2.06592e-15
1.76715e-06
-4.50401e-15
2.15984e-06
2.31003e-15
2.55254e-06
2.94524e-06
-5.40991e-16
1.80131e-16
9.81747e-07
-4.2796e-18
1.37445e-06
1.8478e-15
1.76715e-06
3.88625e-15
2.15984e-06
-3.15697e-15
2.55254e-06
2.94524e-06
-4.98013e-16
4.83957e-17
9.81747e-07
-3.94603e-17
1.37445e-06
-1.94322e-16
1.76715e-06
1.80609e-15
2.15984e-06
4.2088e-15
2.55254e-06
2.94524e-06
-5.01318e-15
-8.69377e-17
9.81747e-07
1.01957e-16
1.37445e-06
-2.6931e-15
1.76715e-06
-7.44276e-15
2.15984e-06
-3.25966e-15
2.55254e-06
2.94524e-06
2.79808e-15
1.16484e-16
9.81747e-07
-1.86332e-16
1.37445e-06
1.56242e-15
1.76715e-06
4.2126e-15
2.15984e-06
7.49842e-15
2.55254e-06
2.94524e-06
-7.7193e-16
-1.80577e-18
9.81747e-07
3.88853e-16
1.37445e-06
2.60422e-15
1.76715e-06
-1.94355e-15
2.15984e-06
-8.06605e-15
2.55254e-06
2.94524e-06
9.03009e-15
-1.36934e-16
-2.42031e-16
-3.76908e-16
1.33926e-15
3.68163e-15
-5.95109e-15
-1.13359e-14
4.53785e-06
-4.53785e-06
-4.80799e-16
5.23599e-06
-5.23599e-06
-5.35753e-15
5.93412e-06
-5.93412e-06
-1.13032e-14
6.63225e-06
-6.63225e-06
4.86861e-15
7.33038e-06
-7.33038e-06
-1.10915e-15
8.02851e-06
-8.02851e-06
-8.15796e-15
8.72664e-06
-8.72664e-06
1.30454e-14
9.42478e-06
-9.42478e-06
5.95062e-15
1.01229e-05
-1.01229e-05
-1.99638e-15
1.0821e-05
-1.0821e-05
2.43873e-14
1.15192e-05
-1.15192e-05
1.619e-14
1.22173e-05
-1.22173e-05
-3.27862e-14
1.29154e-05
-1.29154e-05
-3.05485e-15
1.36136e-05
-1.36136e-05
-1.44426e-14
1.43117e-05
-1.43117e-05
-2.69017e-14
1.50098e-05
-1.50098e-05
7.74101e-15
1.5708e-05
-1.5708e-05
-4.43542e-15
1.64061e-05
-1.64061e-05
-1.80004e-14
1.71042e-05
-1.71042e-05
2.18245e-14
1.78024e-05
-1.78024e-05
8.21335e-15
1.85005e-05
-1.85005e-05
-6.07527e-15
1.91986e-05
-1.91986e-05
3.89192e-14
1.98967e-05
-1.98967e-05
2.05949e-05
-2.05949e-05
9.39905e-15
4.53785e-06
5.204e-16
5.23599e-06
7.52851e-15
5.93412e-06
-4.41161e-15
6.63225e-06
3.78224e-15
7.33038e-06
1.33853e-14
8.02851e-06
-2.10964e-15
8.72664e-06
8.52979e-15
9.42478e-06
-1.00264e-14
1.01229e-05
1.86478e-15
1.0821e-05
-2.02014e-14
1.15192e-05
-7.01144e-15
1.22173e-05
7.51269e-15
1.29154e-05
2.3609e-14
1.36136e-05
-2.04168e-15
1.43117e-05
1.48353e-14
1.50098e-05
-1.3878e-14
1.5708e-05
2.3942e-15
1.64061e-05
2.04155e-14
1.71042e-05
-7.01285e-15
1.78024e-05
1.20647e-14
1.85005e-05
-2.59323e-14
1.91986e-05
1.84845e-15
1.98967e-05
2.05949e-05
-8.6763e-15
4.53785e-06
1.22923e-14
5.23599e-06
1.88348e-15
5.93412e-06
8.90239e-15
6.63225e-06
-5.10803e-15
7.33038e-06
-2.19901e-14
8.02851e-06
1.22644e-14
8.72664e-06
-5.37331e-15
9.42478e-06
4.45617e-15
1.01229e-05
-1.43051e-14
1.0821e-05
-7.32378e-15
1.15192e-05
7.04104e-15
1.22173e-05
2.39965e-14
1.29154e-05
-7.55319e-15
1.36136e-05
9.80196e-15
1.43117e-05
-1.62342e-14
1.50098e-05
4.02953e-14
1.5708e-05
1.4447e-14
1.64061e-05
-1.37038e-14
1.71042e-05
-7.89573e-15
1.78024e-05
-3.92485e-14
1.85005e-05
4.27564e-14
1.91986e-05
-8.84706e-15
1.98967e-05
2.05949e-05
5.98598e-15
4.53785e-06
2.19094e-16
5.23599e-06
-6.43504e-15
5.93412e-06
6.06457e-15
6.63225e-06
-2.09189e-15
7.33038e-06
1.61776e-14
8.02851e-06
-1.88294e-14
8.72664e-06
-2.35041e-15
9.42478e-06
9.17297e-15
1.01229e-05
-4.71012e-15
1.0821e-05
2.1628e-14
1.15192e-05
-2.96443e-14
1.22173e-05
-9.28984e-15
1.29154e-05
-1.89065e-14
1.36136e-05
4.46869e-15
1.43117e-05
3.01545e-14
1.50098e-05
-2.62155e-14
1.5708e-05
4.38189e-16
1.64061e-05
-2.11731e-14
1.71042e-05
1.87145e-14
1.78024e-05
-3.91738e-15
1.85005e-05
-2.91524e-14
1.91986e-05
1.52338e-14
1.98967e-05
2.05949e-05
6.71526e-15
4.53785e-06
-7.30628e-15
5.23599e-06
1.11008e-14
5.93412e-06
-4.24107e-15
6.63225e-06
1.5103e-14
7.33038e-06
-5.20898e-15
8.02851e-06
1.70144e-14
8.72664e-06
-3.93962e-15
9.42478e-06
-2.93039e-16
1.01229e-05
6.61202e-15
1.0821e-05
1.37069e-14
1.15192e-05
1.01859e-14
1.22173e-05
1.82166e-14
1.29154e-05
1.43677e-14
1.36136e-05
2.3342e-14
1.43117e-05
-2.53411e-14
1.50098e-05
2.90738e-14
1.5708e-05
-7.82385e-15
1.64061e-05
3.54172e-14
1.71042e-05
-4.50929e-15
1.78024e-05
4.23735e-14
1.85005e-05
-5.80506e-16
1.91986e-05
-8.73083e-15
1.98967e-05
2.05949e-05
-4.63032e-15
4.53785e-06
5.79776e-15
5.23599e-06
-1.61505e-14
5.93412e-06
-5.97442e-15
6.63225e-06
-8.55398e-15
7.33038e-06
4.22525e-15
8.02851e-06
-8.18635e-15
8.72664e-06
7.00029e-15
9.42478e-06
-2.42297e-14
1.01229e-05
-7.76874e-15
1.0821e-05
-2.27631e-14
1.15192e-05
8.35024e-15
1.22173e-05
-7.4031e-15
1.29154e-05
2.82676e-14
1.36136e-05
-4.57103e-14
1.43117e-05
-8.21979e-15
1.50098e-05
-2.82249e-14
1.5708e-05
-2.33588e-15
1.64061e-05
-6.94593e-15
1.71042e-05
2.2152e-14
1.78024e-05
-3.41118e-14
1.85005e-05
-3.73688e-15
1.91986e-05
-3.23471e-14
1.98967e-05
2.05949e-05
-8.92463e-15
4.53785e-06
-2.28863e-15
5.23599e-06
-2.22383e-15
5.93412e-06
6.61627e-15
6.63225e-06
-3.38756e-15
7.33038e-06
-3.90658e-15
8.02851e-06
-6.41878e-15
8.72664e-06
-7.15832e-15
9.42478e-06
6.81092e-15
1.01229e-05
6.98269e-15
1.0821e-05
-9.0637e-15
1.15192e-05
6.7587e-15
1.22173e-05
-2.88865e-14
1.29154e-05
-1.2234e-14
1.36136e-05
4.80494e-15
1.43117e-05
2.50254e-14
1.50098e-05
3.86198e-15
1.5708e-05
3.60965e-15
1.64061e-05
-2.04811e-14
1.71042e-05
-2.17583e-14
1.78024e-05
3.46783e-15
1.85005e-05
2.90449e-14
1.91986e-05
-1.6638e-15
1.98967e-05
2.05949e-05
6.21583e-15
4.53785e-06
-3.87936e-15
5.23599e-06
1.54224e-14
5.93412e-06
-7.06469e-15
6.63225e-06
-2.21023e-15
7.33038e-06
1.42929e-15
8.02851e-06
-5.49272e-15
8.72664e-06
1.32255e-14
9.42478e-06
6.04578e-15
1.01229e-05
-1.74508e-14
1.0821e-05
2.08882e-14
1.15192e-05
-2.14449e-14
1.22173e-05
1.91359e-14
1.29154e-05
-7.31656e-15
1.36136e-05
3.84866e-14
1.43117e-05
-1.29226e-14
1.50098e-05
-1.88218e-15
1.5708e-05
5.71716e-15
1.64061e-05
-7.58477e-15
1.71042e-05
2.76654e-14
1.78024e-05
1.41007e-14
1.85005e-05
-5.3139e-14
1.91986e-05
3.90903e-14
1.98967e-05
2.05949e-05
-1.49866e-15
4.53785e-06
1.08973e-14
5.23599e-06
-6.59904e-15
5.93412e-06
7.26642e-15
6.63225e-06
6.17493e-15
7.33038e-06
2.48836e-15
8.02851e-06
-9.64017e-16
8.72664e-06
-4.36424e-15
9.42478e-06
-8.90001e-15
1.01229e-05
1.38627e-14
1.0821e-05
1.06918e-14
1.15192e-05
6.25115e-15
1.22173e-05
-1.26304e-16
1.29154e-05
-3.43502e-15
1.36136e-05
-1.10442e-14
1.43117e-05
-1.77636e-14
1.50098e-05
1.76837e-14
1.5708e-05
9.95346e-15
1.64061e-05
3.32942e-15
1.71042e-05
-3.29637e-14
1.78024e-05
-1.04173e-14
1.85005e-05
3.00679e-14
1.91986e-05
-5.99892e-14
1.98967e-05
2.05949e-05
5.17028e-15
4.53785e-06
-7.45517e-15
5.23599e-06
-7.5639e-16
5.93412e-06
6.84005e-15
6.63225e-06
-9.97391e-15
7.33038e-06
-1.6636e-15
8.02851e-06
9.21875e-15
8.72664e-06
-1.34585e-14
9.42478e-06
2.3222e-14
1.01229e-05
1.04721e-14
1.0821e-05
-1.72732e-14
1.15192e-05
-3.02556e-15
1.22173e-05
1.1397e-14
1.29154e-05
-1.9815e-14
1.36136e-05
-4.67603e-15
1.43117e-05
5.03081e-14
1.50098e-05
-2.40428e-14
1.5708e-05
-6.65438e-15
1.64061e-05
1.42627e-14
1.71042e-05
1.65236e-15
1.78024e-05
-6.8106e-15
1.85005e-05
1.44445e-14
1.91986e-05
5.07595e-14
1.98967e-05
2.05949e-05
-6.19698e-15
4.53785e-06
2.87375e-17
5.23599e-06
1.1512e-14
5.93412e-06
-2.06257e-14
6.63225e-06
5.36678e-15
7.33038e-06
1.22155e-15
8.02851e-06
-4.74714e-17
8.72664e-06
1.2393e-14
9.42478e-06
-1.32273e-14
1.01229e-05
-1.88945e-14
1.0821e-05
-4.96386e-15
1.15192e-05
-7.15328e-15
1.22173e-05
-1.48873e-14
1.29154e-05
3.53399e-14
1.36136e-05
9.95509e-19
1.43117e-05
-4.31352e-14
1.50098e-05
1.35638e-14
1.5708e-05
-2.82537e-14
1.64061e-05
2.45731e-15
1.71042e-05
-1.02386e-14
1.78024e-05
2.38033e-14
1.85005e-05
1.38769e-14
1.91986e-05
-4.55581e-14
1.98967e-05
2.05949e-05
-1.90633e-15
4.53785e-06
1.13059e-15
5.23599e-06
-2.16614e-14
5.93412e-06
9.62426e-15
6.63225e-06
1.51373e-14
7.33038e-06
-1.40654e-14
8.02851e-06
8.09328e-15
8.72664e-06
-2.69588e-14
9.42478e-06
-1.96536e-15
1.01229e-05
2.97171e-14
1.0821e-05
-1.17458e-14
1.15192e-05
1.98672e-14
1.22173e-05
-2.74448e-14
1.29154e-05
-2.06141e-14
1.36136e-05
1.60409e-14
1.43117e-05
-4.61296e-15
1.50098e-05
4.69457e-15
1.5708e-05
4.79682e-14
1.64061e-05
-1.3737e-14
1.71042e-05
3.23731e-14
1.78024e-05
-3.51808e-14
1.85005e-05
-2.49046e-14
1.91986e-05
7.19165e-14
1.98967e-05
2.05949e-05
1.9068e-15
4.53785e-06
-1.1308e-15
5.23599e-06
2.16621e-14
5.93412e-06
-9.62371e-15
6.63225e-06
-1.51373e-14
7.33038e-06
1.40657e-14
8.02851e-06
-8.0927e-15
8.72664e-06
2.69596e-14
9.42478e-06
1.96574e-15
1.01229e-05
-2.97183e-14
1.0821e-05
1.17461e-14
1.15192e-05
-1.98675e-14
1.22173e-05
2.74464e-14
1.29154e-05
2.06168e-14
1.36136e-05
-1.60405e-14
1.43117e-05
4.61407e-15
1.50098e-05
-4.69119e-15
1.5708e-05
-4.7967e-14
1.64061e-05
1.37417e-14
1.71042e-05
-3.23708e-14
1.78024e-05
3.51869e-14
1.85005e-05
2.49051e-14
1.91986e-05
-7.19134e-14
1.98967e-05
2.05949e-05
6.19746e-15
4.53785e-06
-2.86276e-17
5.23599e-06
-1.15117e-14
5.93412e-06
2.06262e-14
6.63225e-06
-5.36635e-15
7.33038e-06
-1.22136e-15
8.02851e-06
4.66296e-17
8.72664e-06
-1.23934e-14
9.42478e-06
1.32268e-14
1.01229e-05
1.88949e-14
1.0821e-05
4.96434e-15
1.15192e-05
7.15337e-15
1.22173e-05
1.48891e-14
1.29154e-05
-3.53384e-14
1.36136e-05
3.14178e-18
1.43117e-05
4.31375e-14
1.50098e-05
-1.35595e-14
1.5708e-05
2.82579e-14
1.64061e-05
-2.45311e-15
1.71042e-05
1.02409e-14
1.78024e-05
-2.38023e-14
1.85005e-05
-1.38808e-14
1.91986e-05
4.55648e-14
1.98967e-05
2.05949e-05
-5.17003e-15
4.53785e-06
7.45541e-15
5.23599e-06
7.5681e-16
5.93412e-06
-6.8392e-15
6.63225e-06
9.97416e-15
7.33038e-06
1.6652e-15
8.02851e-06
-9.21905e-15
8.72664e-06
1.346e-14
9.42478e-06
-2.32202e-14
1.01229e-05
-1.04706e-14
1.0821e-05
1.72717e-14
1.15192e-05
3.02724e-15
1.22173e-05
-1.13963e-14
1.29154e-05
1.98168e-14
1.36136e-05
4.67923e-15
1.43117e-05
-5.03067e-14
1.50098e-05
2.40474e-14
1.5708e-05
6.66079e-15
1.64061e-05
-1.42594e-14
1.71042e-05
-1.64808e-15
1.78024e-05
6.81122e-15
1.85005e-05
-1.44441e-14
1.91986e-05
-5.07589e-14
1.98967e-05
2.05949e-05
1.49879e-15
4.53785e-06
-1.0897e-14
5.23599e-06
6.59952e-15
5.93412e-06
-7.26569e-15
6.63225e-06
-6.17504e-15
7.33038e-06
-2.48856e-15
8.02851e-06
9.65138e-16
8.72664e-06
4.36464e-15
9.42478e-06
8.90204e-15
1.01229e-05
-1.38628e-14
1.0821e-05
-1.06901e-14
1.15192e-05
-6.2498e-15
1.22173e-05
1.27658e-16
1.29154e-05
3.43982e-15
1.36136e-05
1.10452e-14
1.43117e-05
1.7767e-14
1.50098e-05
-1.76791e-14
1.5708e-05
-9.95422e-15
1.64061e-05
-3.32769e-15
1.71042e-05
3.29686e-14
1.78024e-05
1.04249e-14
1.85005e-05
-3.00641e-14
1.91986e-05
5.99964e-14
1.98967e-05
2.05949e-05
-6.21556e-15
4.53785e-06
3.87917e-15
5.23599e-06
-1.54217e-14
5.93412e-06
7.06519e-15
6.63225e-06
2.21077e-15
7.33038e-06
-1.42965e-15
8.02851e-06
5.49341e-15
8.72664e-06
-1.32261e-14
9.42478e-06
-6.04535e-15
1.01229e-05
1.74512e-14
1.0821e-05
-2.08863e-14
1.15192e-05
2.14456e-14
1.22173e-05
-1.91326e-14
1.29154e-05
7.31635e-15
1.36136e-05
-3.84828e-14
1.43117e-05
1.29263e-14
1.50098e-05
1.88224e-15
1.5708e-05
-5.71859e-15
1.64061e-05
7.58532e-15
1.71042e-05
-2.76574e-14
1.78024e-05
-1.40942e-14
1.85005e-05
5.31461e-14
1.91986e-05
-3.90824e-14
1.98967e-05
2.05949e-05
8.92546e-15
4.53785e-06
2.28895e-15
5.23599e-06
2.22405e-15
5.93412e-06
-6.61634e-15
6.63225e-06
3.38855e-15
7.33038e-06
3.90646e-15
8.02851e-06
6.41866e-15
8.72664e-06
7.15863e-15
9.42478e-06
-6.80982e-15
1.01229e-05
-6.98193e-15
1.0821e-05
9.06349e-15
1.15192e-05
-6.75856e-15
1.22173e-05
2.8888e-14
1.29154e-05
1.22359e-14
1.36136e-05
-4.80193e-15
1.43117e-05
-2.5025e-14
1.50098e-05
-3.85904e-15
1.5708e-05
-3.60888e-15
1.64061e-05
2.04835e-14
1.71042e-05
2.17625e-14
1.78024e-05
-3.46679e-15
1.85005e-05
-2.90386e-14
1.91986e-05
1.66116e-15
1.98967e-05
2.05949e-05
4.63037e-15
4.53785e-06
-5.79744e-15
5.23599e-06
1.61508e-14
5.93412e-06
5.97474e-15
6.63225e-06
8.55509e-15
7.33038e-06
-4.22404e-15
8.02851e-06
8.18758e-15
8.72664e-06
-6.9986e-15
9.42478e-06
2.42296e-14
1.01229e-05
7.77016e-15
1.0821e-05
2.27645e-14
1.15192e-05
-8.3479e-15
1.22173e-05
7.40179e-15
1.29154e-05
-2.82641e-14
1.36136e-05
4.57123e-14
1.43117e-05
8.22292e-15
1.50098e-05
2.82289e-14
1.5708e-05
2.34111e-15
1.64061e-05
6.94815e-15
1.71042e-05
-2.21473e-14
1.78024e-05
3.41111e-14
1.85005e-05
3.74135e-15
1.91986e-05
3.23464e-14
1.98967e-05
2.05949e-05
-6.71499e-15
4.53785e-06
7.30682e-15
5.23599e-06
-1.11008e-14
5.93412e-06
4.24133e-15
6.63225e-06
-1.5102e-14
7.33038e-06
5.20894e-15
8.02851e-06
-1.70141e-14
8.72664e-06
3.94151e-15
9.42478e-06
2.94884e-16
1.01229e-05
-6.60982e-15
1.0821e-05
-1.37055e-14
1.15192e-05
-1.01835e-14
1.22173e-05
-1.82166e-14
1.29154e-05
-1.43681e-14
1.36136e-05
-2.3337e-14
1.43117e-05
2.53472e-14
1.50098e-05
-2.90716e-14
1.5708e-05
7.82828e-15
1.64061e-05
-3.54143e-14
1.71042e-05
4.51492e-15
1.78024e-05
-4.23688e-14
1.85005e-05
5.8876e-16
1.91986e-05
8.73019e-15
1.98967e-05
2.05949e-05
-5.98573e-15
4.53785e-06
-2.1865e-16
5.23599e-06
6.43585e-15
5.93412e-06
-6.06323e-15
6.63225e-06
2.09241e-15
7.33038e-06
-1.61762e-14
8.02851e-06
1.8831e-14
8.72664e-06
2.35099e-15
9.42478e-06
-9.17194e-15
1.01229e-05
4.71031e-15
1.0821e-05
-2.16262e-14
1.15192e-05
2.9646e-14
1.22173e-05
9.28915e-15
1.29154e-05
1.89082e-14
1.36136e-05
-4.46347e-15
1.43117e-05
-3.01535e-14
1.50098e-05
2.62177e-14
1.5708e-05
-4.36678e-16
1.64061e-05
2.11752e-14
1.71042e-05
-1.87114e-14
1.78024e-05
3.92417e-15
1.85005e-05
2.91587e-14
1.91986e-05
-1.52306e-14
1.98967e-05
2.05949e-05
8.67638e-15
4.53785e-06
-1.22922e-14
5.23599e-06
-1.8828e-15
5.93412e-06
-8.9022e-15
6.63225e-06
5.10821e-15
7.33038e-06
2.19916e-14
8.02851e-06
-1.22637e-14
8.72664e-06
5.37579e-15
9.42478e-06
-4.4554e-15
1.01229e-05
1.43053e-14
1.0821e-05
7.32636e-15
1.15192e-05
-7.0403e-15
1.22173e-05
-2.39957e-14
1.29154e-05
7.55852e-15
1.36136e-05
-9.79722e-15
1.43117e-05
1.62359e-14
1.50098e-05
-4.02945e-14
1.5708e-05
-1.44439e-14
1.64061e-05
1.37071e-14
1.71042e-05
7.89527e-15
1.78024e-05
3.92545e-14
1.85005e-05
-4.27515e-14
1.91986e-05
8.84929e-15
1.98967e-05
2.05949e-05
-9.39878e-15
4.53785e-06
-5.2014e-16
5.23599e-06
-7.52799e-15
5.93412e-06
4.41137e-15
6.63225e-06
-3.78293e-15
7.33038e-06
-1.33844e-14
8.02851e-06
2.10966e-15
8.72664e-06
-8.52714e-15
9.42478e-06
1.00271e-14
1.01229e-05
-1.86627e-15
1.0821e-05
2.02025e-14
1.15192e-05
7.01366e-15
1.22173e-05
-7.51145e-15
1.29154e-05
-2.36064e-14
1.36136e-05
2.04445e-15
1.43117e-05
-1.48339e-14
1.50098e-05
1.38819e-14
1.5708e-05
-2.39391e-15
1.64061e-05
-2.04108e-14
1.71042e-05
7.01608e-15
1.78024e-05
-1.20652e-14
1.85005e-05
2.59406e-14
1.91986e-05
-1.84436e-15
1.98967e-05
2.05949e-05
1.13361e-14
4.53785e-06
4.81133e-16
5.23599e-06
5.35725e-15
5.93412e-06
1.13032e-14
6.63225e-06
-4.86846e-15
7.33038e-06
1.10929e-15
8.02851e-06
8.15881e-15
8.72664e-06
-1.30435e-14
9.42478e-06
-5.94972e-15
1.01229e-05
1.99733e-15
1.0821e-05
-2.43873e-14
1.15192e-05
-1.61909e-14
1.22173e-05
3.27866e-14
1.29154e-05
3.05303e-15
1.36136e-05
1.44428e-14
1.43117e-05
2.68997e-14
1.50098e-05
-7.73719e-15
1.5708e-05
4.43716e-15
1.64061e-05
1.8001e-14
1.71042e-05
-2.18208e-14
1.78024e-05
-8.20958e-15
1.85005e-05
6.08515e-15
1.91986e-05
-3.89202e-14
1.98967e-05
2.05949e-05
1.36939e-16
9.81747e-07
2.42082e-16
1.37445e-06
3.77008e-16
1.76715e-06
-1.33927e-15
2.15984e-06
-3.68147e-15
2.55254e-06
2.94524e-06
5.95139e-15
1.865e-18
9.81747e-07
-3.88794e-16
1.37445e-06
-2.60413e-15
1.76715e-06
1.94359e-15
2.15984e-06
8.06634e-15
2.55254e-06
2.94524e-06
-9.02957e-15
-1.16435e-16
9.81747e-07
1.86389e-16
1.37445e-06
-1.56232e-15
1.76715e-06
-4.21248e-15
2.15984e-06
-7.49834e-15
2.55254e-06
2.94524e-06
7.7223e-16
8.69515e-17
9.81747e-07
-1.01949e-16
1.37445e-06
2.69322e-15
1.76715e-06
7.44295e-15
2.15984e-06
3.25996e-15
2.55254e-06
2.94524e-06
-2.798e-15
-4.83699e-17
9.81747e-07
3.95456e-17
1.37445e-06
1.94334e-16
1.76715e-06
-1.80603e-15
2.15984e-06
-4.20835e-15
2.55254e-06
2.94524e-06
5.01341e-15
-1.801e-16
9.81747e-07
4.34494e-18
1.37445e-06
-1.84772e-15
1.76715e-06
-3.88609e-15
2.15984e-06
3.15726e-15
2.55254e-06
2.94524e-06
4.98303e-16
2.54e-16
9.81747e-07
2.5541e-16
1.37445e-06
2.06607e-15
1.76715e-06
4.50412e-15
2.15984e-06
-2.30998e-15
2.55254e-06
2.94524e-06
5.41074e-16
2.16595e-17
9.81747e-07
-3.21668e-16
1.37445e-06
-1.14887e-15
1.76715e-06
-5.28568e-15
2.15984e-06
-3.76756e-16
2.55254e-06
2.94524e-06
-5.63975e-15
-1.43401e-16
9.81747e-07
1.66357e-16
1.37445e-06
4.1912e-15
1.76715e-06
6.34948e-15
2.15984e-06
-8.05688e-16
2.55254e-06
2.94524e-06
8.39235e-16
-6.88088e-17
9.81747e-07
-9.20323e-17
1.37445e-06
-2.76938e-15
1.76715e-06
-3.68759e-16
2.15984e-06
-1.45082e-15
2.55254e-06
2.94524e-06
-1.76569e-16
1.66325e-16
9.81747e-07
-8.86666e-17
1.37445e-06
5.697e-16
1.76715e-06
-2.10355e-15
2.15984e-06
9.66003e-15
2.55254e-06
2.94524e-06
5.29022e-15
-1.7776e-16
9.81747e-07
-2.04836e-17
1.37445e-06
-3.45396e-16
1.76715e-06
-4.17258e-15
2.15984e-06
-2.62231e-15
2.55254e-06
2.94524e-06
5.36963e-15
1.77807e-16
9.81747e-07
2.05077e-17
1.37445e-06
3.4545e-16
1.76715e-06
4.17265e-15
2.15984e-06
2.62238e-15
2.55254e-06
2.94524e-06
-5.36935e-15
-1.66323e-16
9.81747e-07
8.87237e-17
1.37445e-06
-5.69687e-16
1.76715e-06
2.10346e-15
2.15984e-06
-9.65992e-15
2.55254e-06
2.94524e-06
-5.29016e-15
6.8815e-17
9.81747e-07
9.21051e-17
1.37445e-06
2.76933e-15
1.76715e-06
3.68931e-16
2.15984e-06
1.45092e-15
2.55254e-06
2.94524e-06
1.76715e-16
1.43433e-16
9.81747e-07
-1.66351e-16
1.37445e-06
-4.19115e-15
1.76715e-06
-6.34935e-15
2.15984e-06
8.05688e-16
2.55254e-06
2.94524e-06
-8.39109e-16
-2.16436e-17
9.81747e-07
3.21647e-16
1.37445e-06
1.14897e-15
1.76715e-06
5.28569e-15
2.15984e-06
3.76693e-16
2.55254e-06
2.94524e-06
5.63976e-15
-2.53956e-16
9.81747e-07
-2.55425e-16
1.37445e-06
-2.06592e-15
1.76715e-06
-4.50401e-15
2.15984e-06
2.31003e-15
2.55254e-06
2.94524e-06
-5.40991e-16
1.80131e-16
9.81747e-07
-4.2796e-18
1.37445e-06
1.8478e-15
1.76715e-06
3.88625e-15
2.15984e-06
-3.15697e-15
2.55254e-06
2.94524e-06
-4.98013e-16
4.83957e-17
9.81747e-07
-3.94603e-17
1.37445e-06
-1.94322e-16
1.76715e-06
1.80609e-15
2.15984e-06
4.2088e-15
2.55254e-06
2.94524e-06
-5.01318e-15
-8.69377e-17
9.81747e-07
1.01957e-16
1.37445e-06
-2.6931e-15
1.76715e-06
-7.44276e-15
2.15984e-06
-3.25966e-15
2.55254e-06
2.94524e-06
2.79808e-15
1.16484e-16
9.81747e-07
-1.86332e-16
1.37445e-06
1.56242e-15
1.76715e-06
4.2126e-15
2.15984e-06
7.49842e-15
2.55254e-06
2.94524e-06
-7.7193e-16
-1.80577e-18
9.81747e-07
3.88853e-16
1.37445e-06
2.60422e-15
1.76715e-06
-1.94355e-15
2.15984e-06
-8.06605e-15
2.55254e-06
2.94524e-06
9.03009e-15
-1.36941e-16
-2.42049e-16
-3.77028e-16
1.3392e-15
3.68176e-15
-5.95109e-15
-1.1336e-14
4.53785e-06
-4.80997e-16
5.23599e-06
-5.35707e-15
5.93412e-06
-1.1303e-14
6.63225e-06
4.86888e-15
7.33038e-06
-1.10855e-15
8.02851e-06
-8.1573e-15
8.72664e-06
1.30447e-14
9.42478e-06
5.95022e-15
1.01229e-05
-1.99596e-15
1.0821e-05
2.43882e-14
1.15192e-05
1.61895e-14
1.22173e-05
-3.27862e-14
1.29154e-05
-3.05381e-15
1.36136e-05
-1.44426e-14
1.43117e-05
-2.69028e-14
1.50098e-05
7.73985e-15
1.5708e-05
-4.43422e-15
1.64061e-05
-1.7999e-14
1.71042e-05
2.18259e-14
1.78024e-05
8.21067e-15
1.85005e-05
-6.07662e-15
1.91986e-05
3.8922e-14
1.98967e-05
2.05949e-05
9.39905e-15
4.53785e-06
5.204e-16
5.23599e-06
7.52851e-15
5.93412e-06
-4.41161e-15
6.63225e-06
3.78224e-15
7.33038e-06
1.33853e-14
8.02851e-06
-2.10964e-15
8.72664e-06
8.52979e-15
9.42478e-06
-1.00264e-14
1.01229e-05
1.86478e-15
1.0821e-05
-2.02014e-14
1.15192e-05
-7.01144e-15
1.22173e-05
7.51269e-15
1.29154e-05
2.3609e-14
1.36136e-05
-2.04168e-15
1.43117e-05
1.48353e-14
1.50098e-05
-1.3878e-14
1.5708e-05
2.3942e-15
1.64061e-05
2.04155e-14
1.71042e-05
-7.01285e-15
1.78024e-05
1.20647e-14
1.85005e-05
-2.59323e-14
1.91986e-05
1.84845e-15
1.98967e-05
2.05949e-05
-8.6763e-15
4.53785e-06
1.22923e-14
5.23599e-06
1.88348e-15
5.93412e-06
8.90239e-15
6.63225e-06
-5.10803e-15
7.33038e-06
-2.19901e-14
8.02851e-06
1.22644e-14
8.72664e-06
-5.37331e-15
9.42478e-06
4.45617e-15
1.01229e-05
-1.43051e-14
1.0821e-05
-7.32378e-15
1.15192e-05
7.04104e-15
1.22173e-05
2.39965e-14
1.29154e-05
-7.55319e-15
1.36136e-05
9.80196e-15
1.43117e-05
-1.62342e-14
1.50098e-05
4.02953e-14
1.5708e-05
1.4447e-14
1.64061e-05
-1.37038e-14
1.71042e-05
-7.89573e-15
1.78024e-05
-3.92485e-14
1.85005e-05
4.27564e-14
1.91986e-05
-8.84706e-15
1.98967e-05
2.05949e-05
5.98598e-15
4.53785e-06
2.19094e-16
5.23599e-06
-6.43504e-15
5.93412e-06
6.06457e-15
6.63225e-06
-2.09189e-15
7.33038e-06
1.61776e-14
8.02851e-06
-1.88294e-14
8.72664e-06
-2.35041e-15
9.42478e-06
9.17297e-15
1.01229e-05
-4.71012e-15
1.0821e-05
2.1628e-14
1.15192e-05
-2.96443e-14
1.22173e-05
-9.28984e-15
1.29154e-05
-1.89065e-14
1.36136e-05
4.46869e-15
1.43117e-05
3.01545e-14
1.50098e-05
-2.62155e-14
1.5708e-05
4.38189e-16
1.64061e-05
-2.11731e-14
1.71042e-05
1.87145e-14
1.78024e-05
-3.91738e-15
1.85005e-05
-2.91524e-14
1.91986e-05
1.52338e-14
1.98967e-05
2.05949e-05
6.71526e-15
4.53785e-06
-7.30628e-15
5.23599e-06
1.11008e-14
5.93412e-06
-4.24107e-15
6.63225e-06
1.5103e-14
7.33038e-06
-5.20898e-15
8.02851e-06
1.70144e-14
8.72664e-06
-3.93962e-15
9.42478e-06
-2.93039e-16
1.01229e-05
6.61202e-15
1.0821e-05
1.37069e-14
1.15192e-05
1.01859e-14
1.22173e-05
1.82166e-14
1.29154e-05
1.43677e-14
1.36136e-05
2.3342e-14
1.43117e-05
-2.53411e-14
1.50098e-05
2.90738e-14
1.5708e-05
-7.82385e-15
1.64061e-05
3.54172e-14
1.71042e-05
-4.50929e-15
1.78024e-05
4.23735e-14
1.85005e-05
-5.80506e-16
1.91986e-05
-8.73083e-15
1.98967e-05
2.05949e-05
-4.63032e-15
4.53785e-06
5.79776e-15
5.23599e-06
-1.61505e-14
5.93412e-06
-5.97442e-15
6.63225e-06
-8.55398e-15
7.33038e-06
4.22525e-15
8.02851e-06
-8.18635e-15
8.72664e-06
7.00029e-15
9.42478e-06
-2.42297e-14
1.01229e-05
-7.76874e-15
1.0821e-05
-2.27631e-14
1.15192e-05
8.35024e-15
1.22173e-05
-7.4031e-15
1.29154e-05
2.82676e-14
1.36136e-05
-4.57103e-14
1.43117e-05
-8.21979e-15
1.50098e-05
-2.82249e-14
1.5708e-05
-2.33588e-15
1.64061e-05
-6.94593e-15
1.71042e-05
2.2152e-14
1.78024e-05
-3.41118e-14
1.85005e-05
-3.73688e-15
1.91986e-05
-3.23471e-14
1.98967e-05
2.05949e-05
-8.92463e-15
4.53785e-06
-2.28863e-15
5.23599e-06
-2.22383e-15
5.93412e-06
6.61627e-15
6.63225e-06
-3.38756e-15
7.33038e-06
-3.90658e-15
8.02851e-06
-6.41878e-15
8.72664e-06
-7.15832e-15
9.42478e-06
6.81092e-15
1.01229e-05
6.98269e-15
1.0821e-05
-9.0637e-15
1.15192e-05
6.7587e-15
1.22173e-05
-2.88865e-14
1.29154e-05
-1.2234e-14
1.36136e-05
4.80494e-15
1.43117e-05
2.50254e-14
1.50098e-05
3.86198e-15
1.5708e-05
3.60965e-15
1.64061e-05
-2.04811e-14
1.71042e-05
-2.17583e-14
1.78024e-05
3.46783e-15
1.85005e-05
2.90449e-14
1.91986e-05
-1.6638e-15
1.98967e-05
2.05949e-05
6.21583e-15
4.53785e-06
-3.87936e-15
5.23599e-06
1.54224e-14
5.93412e-06
-7.06469e-15
6.63225e-06
-2.21023e-15
7.33038e-06
1.42929e-15
8.02851e-06
-5.49272e-15
8.72664e-06
1.32255e-14
9.42478e-06
6.04578e-15
1.01229e-05
-1.74508e-14
1.0821e-05
2.08882e-14
1.15192e-05
-2.14449e-14
1.22173e-05
1.91359e-14
1.29154e-05
-7.31656e-15
1.36136e-05
3.84866e-14
1.43117e-05
-1.29226e-14
1.50098e-05
-1.88218e-15
1.5708e-05
5.71716e-15
1.64061e-05
-7.58477e-15
1.71042e-05
2.76654e-14
1.78024e-05
1.41007e-14
1.85005e-05
-5.3139e-14
1.91986e-05
3.90903e-14
1.98967e-05
2.05949e-05
-1.49866e-15
4.53785e-06
1.08973e-14
5.23599e-06
-6.59904e-15
5.93412e-06
7.26642e-15
6.63225e-06
6.17493e-15
7.33038e-06
2.48836e-15
8.02851e-06
-9.64017e-16
8.72664e-06
-4.36424e-15
9.42478e-06
-8.90001e-15
1.01229e-05
1.38627e-14
1.0821e-05
1.06918e-14
1.15192e-05
6.25115e-15
1.22173e-05
-1.26304e-16
1.29154e-05
-3.43502e-15
1.36136e-05
-1.10442e-14
1.43117e-05
-1.77636e-14
1.50098e-05
1.76837e-14
1.5708e-05
9.95346e-15
1.64061e-05
3.32942e-15
1.71042e-05
-3.29637e-14
1.78024e-05
-1.04173e-14
1.85005e-05
3.00679e-14
1.91986e-05
-5.99892e-14
1.98967e-05
2.05949e-05
5.17028e-15
4.53785e-06
-7.45517e-15
5.23599e-06
-7.5639e-16
5.93412e-06
6.84005e-15
6.63225e-06
-9.97391e-15
7.33038e-06
-1.6636e-15
8.02851e-06
9.21875e-15
8.72664e-06
-1.34585e-14
9.42478e-06
2.3222e-14
1.01229e-05
1.04721e-14
1.0821e-05
-1.72732e-14
1.15192e-05
-3.02556e-15
1.22173e-05
1.1397e-14
1.29154e-05
-1.9815e-14
1.36136e-05
-4.67603e-15
1.43117e-05
5.03081e-14
1.50098e-05
-2.40428e-14
1.5708e-05
-6.65438e-15
1.64061e-05
1.42627e-14
1.71042e-05
1.65236e-15
1.78024e-05
-6.8106e-15
1.85005e-05
1.44445e-14
1.91986e-05
5.07595e-14
1.98967e-05
2.05949e-05
-6.19698e-15
4.53785e-06
2.87375e-17
5.23599e-06
1.1512e-14
5.93412e-06
-2.06257e-14
6.63225e-06
5.36678e-15
7.33038e-06
1.22155e-15
8.02851e-06
-4.74714e-17
8.72664e-06
1.2393e-14
9.42478e-06
-1.32273e-14
1.01229e-05
-1.88945e-14
1.0821e-05
-4.96386e-15
1.15192e-05
-7.15328e-15
1.22173e-05
-1.48873e-14
1.29154e-05
3.53399e-14
1.36136e-05
9.95509e-19
1.43117e-05
-4.31352e-14
1.50098e-05
1.35638e-14
1.5708e-05
-2.82537e-14
1.64061e-05
2.45731e-15
1.71042e-05
-1.02386e-14
1.78024e-05
2.38033e-14
1.85005e-05
1.38769e-14
1.91986e-05
-4.55581e-14
1.98967e-05
2.05949e-05
-1.90633e-15
4.53785e-06
1.13059e-15
5.23599e-06
-2.16614e-14
5.93412e-06
9.62426e-15
6.63225e-06
1.51373e-14
7.33038e-06
-1.40654e-14
8.02851e-06
8.09328e-15
8.72664e-06
-2.69588e-14
9.42478e-06
-1.96536e-15
1.01229e-05
2.97171e-14
1.0821e-05
-1.17458e-14
1.15192e-05
1.98672e-14
1.22173e-05
-2.74448e-14
1.29154e-05
-2.06141e-14
1.36136e-05
1.60409e-14
1.43117e-05
-4.61296e-15
1.50098e-05
4.69457e-15
1.5708e-05
4.79682e-14
1.64061e-05
-1.3737e-14
1.71042e-05
3.23731e-14
1.78024e-05
-3.51808e-14
1.85005e-05
-2.49046e-14
1.91986e-05
7.19165e-14
1.98967e-05
2.05949e-05
1.9068e-15
4.53785e-06
-1.1308e-15
5.23599e-06
2.16621e-14
5.93412e-06
-9.62371e-15
6.63225e-06
-1.51373e-14
7.33038e-06
1.40657e-14
8.02851e-06
-8.0927e-15
8.72664e-06
2.69596e-14
9.42478e-06
1.96574e-15
1.01229e-05
-2.97183e-14
1.0821e-05
1.17461e-14
1.15192e-05
-1.98675e-14
1.22173e-05
2.74464e-14
1.29154e-05
2.06168e-14
1.36136e-05
-1.60405e-14
1.43117e-05
4.61407e-15
1.50098e-05
-4.69119e-15
1.5708e-05
-4.7967e-14
1.64061e-05
1.37417e-14
1.71042e-05
-3.23708e-14
1.78024e-05
3.51869e-14
1.85005e-05
2.49051e-14
1.91986e-05
-7.19134e-14
1.98967e-05
2.05949e-05
6.19746e-15
4.53785e-06
-2.86276e-17
5.23599e-06
-1.15117e-14
5.93412e-06
2.06262e-14
6.63225e-06
-5.36635e-15
7.33038e-06
-1.22136e-15
8.02851e-06
4.66296e-17
8.72664e-06
-1.23934e-14
9.42478e-06
1.32268e-14
1.01229e-05
1.88949e-14
1.0821e-05
4.96434e-15
1.15192e-05
7.15337e-15
1.22173e-05
1.48891e-14
1.29154e-05
-3.53384e-14
1.36136e-05
3.14178e-18
1.43117e-05
4.31375e-14
1.50098e-05
-1.35595e-14
1.5708e-05
2.82579e-14
1.64061e-05
-2.45311e-15
1.71042e-05
1.02409e-14
1.78024e-05
-2.38023e-14
1.85005e-05
-1.38808e-14
1.91986e-05
4.55648e-14
1.98967e-05
2.05949e-05
-5.17003e-15
4.53785e-06
7.45541e-15
5.23599e-06
7.5681e-16
5.93412e-06
-6.8392e-15
6.63225e-06
9.97416e-15
7.33038e-06
1.6652e-15
8.02851e-06
-9.21905e-15
8.72664e-06
1.346e-14
9.42478e-06
-2.32202e-14
1.01229e-05
-1.04706e-14
1.0821e-05
1.72717e-14
1.15192e-05
3.02724e-15
1.22173e-05
-1.13963e-14
1.29154e-05
1.98168e-14
1.36136e-05
4.67923e-15
1.43117e-05
-5.03067e-14
1.50098e-05
2.40474e-14
1.5708e-05
6.66079e-15
1.64061e-05