/*--------------------------------*- C++ -*----------------------------------*\
  =========                 |
  \\      /  F ield         | OpenFOAM: The Open Source CFD Toolbox
   \\    /   O peration     | Website:  https://openfoam.org
    \\  /    A nd           | Version:  11
     \\/     M anipulation  |
\*---------------------------------------------------------------------------*/
FoamFile
{
    format      ascii;
    class       surfaceScalarField;
    location    "1.72";
    object      phi;
}
// * * * * * * * * * * * * * * * * * * * * * * * * * * * * * * * * * * * * * //

dimensions      [0 3 -1 0 0 0 0];

internalField   nonuniform List<scalar> 
5640
(
-5.24584e-07
5.24584e-07
-6.22753e-07
9.81695e-08
2.35651e-07
-8.58405e-07
2.02388e-06
-1.78822e-06
6.41246e-06
-4.38859e-06
-7.58486e-06
1.39973e-05
-5.21445e-07
1.04603e-06
-3.70429e-07
-5.28466e-08
6.63332e-07
-1.89217e-06
2.8152e-06
-3.94009e-06
6.19144e-06
-7.76483e-06
-1.27769e-05
1.13835e-05
-4.42057e-07
1.48809e-06
-1.54445e-07
-3.40459e-07
9.27968e-07
-2.97458e-06
3.04485e-06
-6.05698e-06
6.06319e-06
-1.07832e-05
-1.65792e-05
9.86549e-06
-3.56977e-07
1.84506e-06
-3.65728e-09
-6.93779e-07
1.05633e-06
-4.03456e-06
3.00442e-06
-8.00507e-06
5.61651e-06
-1.33953e-05
-1.94037e-05
8.44097e-06
-2.77595e-07
2.12266e-06
9.2651e-08
-1.06402e-06
1.07566e-06
-5.01757e-06
2.79288e-06
-9.72228e-06
4.96278e-06
-1.55652e-05
-2.14809e-05
7.04006e-06
-2.09546e-07
2.3322e-06
1.41757e-07
-1.41533e-06
1.00813e-06
-5.88395e-06
2.46219e-06
-1.11763e-05
4.20876e-06
-1.73117e-05
-2.29689e-05
5.69672e-06
-1.55132e-07
2.48734e-06
1.50206e-07
-1.72067e-06
8.71862e-07
-6.6056e-06
2.05053e-06
-1.2355e-05
3.39969e-06
-1.86609e-05
-2.39833e-05
4.41407e-06
-1.14271e-07
2.60161e-06
1.25161e-07
-1.9601e-06
6.82852e-07
-7.16329e-06
1.58496e-06
-1.32571e-05
2.56732e-06
-1.96433e-05
-2.46073e-05
3.19135e-06
-8.5293e-08
2.6869e-06
7.4551e-08
-2.11994e-06
4.562e-07
-7.54494e-06
1.0842e-06
-1.38851e-05
1.73189e-06
-2.02909e-05
-2.49041e-05
2.02868e-06
-6.54114e-08
2.75231e-06
6.96075e-09
-2.19231e-06
2.06636e-07
-7.74462e-06
5.6485e-07
-1.42433e-05
9.05459e-07
-2.06316e-05
-2.49214e-05
9.22751e-07
-5.11386e-08
2.80345e-06
-6.89159e-08
-2.17454e-06
-5.16313e-08
-7.7619e-06
4.24062e-08
-1.43374e-05
9.31377e-08
-2.06823e-05
-2.46977e-05
-1.30613e-07
-3.86034e-08
2.84205e-06
-1.44307e-07
-2.06883e-06
-3.0987e-07
-7.59634e-06
-4.70594e-07
-1.41766e-05
-6.78067e-07
-2.04748e-05
-2.42588e-05
-1.11697e-06
-2.38581e-08
2.86591e-06
-2.10708e-07
-1.88198e-06
-5.50661e-07
-7.25639e-06
-9.60531e-07
-1.37668e-05
-1.41704e-06
-2.00183e-05
-2.36254e-05
-2.05041e-06
-2.96793e-09
2.86888e-06
-2.60196e-07
-1.62476e-06
-7.63562e-07
-6.75302e-06
-1.41542e-06
-1.31149e-05
-2.11093e-06
-1.93228e-05
-2.2813e-05
-2.92332e-06
2.63578e-08
2.84252e-06
-2.85496e-07
-1.3129e-06
-9.36694e-07
-6.10182e-06
-1.82238e-06
-1.22292e-05
-2.75129e-06
-1.83939e-05
-2.18316e-05
-3.73268e-06
6.76569e-08
2.77487e-06
-2.80219e-07
-9.65025e-07
-1.0584e-06
-5.32364e-06
-2.16795e-06
-1.11197e-05
-3.33017e-06
-1.72317e-05
-2.06873e-05
-4.47447e-06
1.21279e-07
2.65359e-06
-2.3919e-07
-6.04556e-07
-1.11677e-06
-4.44606e-06
-2.43575e-06
-9.80071e-06
-3.83679e-06
-1.58306e-05
-1.93797e-05
-5.14438e-06
1.89798e-07
2.46379e-06
-1.58993e-07
-2.55766e-07
-1.09973e-06
-3.50533e-06
-2.60646e-06
-8.29398e-06
-4.25537e-06
-1.41817e-05
-1.7897e-05
-5.73807e-06
2.72996e-07
2.19079e-06
-3.91425e-08
5.63732e-08
-9.95537e-07
-2.54893e-06
-2.6577e-06
-6.63181e-06
-4.56213e-06
-1.22773e-05
-1.62091e-05
-6.25004e-06
3.65841e-07
1.82495e-06
1.15355e-07
3.0686e-07
-7.95767e-07
-1.63781e-06
-2.56288e-06
-4.8647e-06
-4.7234e-06
-1.01168e-05
-1.4261e-05
-6.67149e-06
4.27699e-07
1.39725e-06
2.91959e-07
4.42599e-07
-4.98999e-07
-8.46851e-07
-2.28227e-06
-3.08143e-06
-4.69053e-06
-7.70851e-06
-1.19729e-05
-6.97862e-06
4.74884e-07
9.22369e-07
4.78282e-07
4.39201e-07
-1.11624e-07
-2.56945e-07
-1.74763e-06
-1.44542e-06
-4.37911e-06
-5.07703e-06
-9.23549e-06
-7.11654e-06
5.09157e-07
4.13212e-07
6.53604e-07
2.94754e-07
3.50302e-07
4.63578e-08
-8.21011e-07
-2.74107e-07
-3.52307e-06
-2.37498e-06
-5.57707e-06
-7.18148e-06
4.13212e-07
7.07966e-07
7.54324e-07
4.80216e-07
-1.89476e-06
-7.47183e-06
1.41409e-05
-3.33038e-05
3.31602e-05
1.43531e-05
-4.38259e-05
4.36136e-05
1.40441e-05
-4.82867e-05
4.85957e-05
1.36298e-05
-5.02736e-05
5.06879e-05
1.32533e-05
-5.11135e-05
5.149e-05
1.29605e-05
-5.15141e-05
5.18069e-05
1.27615e-05
-5.1778e-05
5.19771e-05
1.26467e-05
-5.20163e-05
5.2131e-05
1.26002e-05
-5.22657e-05
5.23122e-05
1.26058e-05
-5.25353e-05
5.25298e-05
1.26491e-05
-5.28237e-05
5.27804e-05
1.27181e-05
-5.31258e-05
5.30569e-05
1.28028e-05
-5.34357e-05
5.33511e-05
1.28949e-05
-5.37471e-05
5.36549e-05
1.29881e-05
-5.40537e-05
5.39606e-05
1.30773e-05
-5.4349e-05
5.42597e-05
1.31595e-05
-5.46257e-05
5.45435e-05
1.32335e-05
-5.48757e-05
5.48017e-05
1.33003e-05
-5.50888e-05
5.5022e-05
1.33633e-05
-5.5252e-05
5.5189e-05
1.34283e-05
-5.53485e-05
5.52835e-05
1.35034e-05
-5.53574e-05
5.52823e-05
1.36036e-05
-5.52582e-05
5.5158e-05
-5.50292e-05
5.48762e-05
1.25234e-05
-3.44437e-05
1.26935e-05
-4.3996e-05
1.23533e-05
-4.79464e-05
1.18282e-05
-4.97485e-05
1.13373e-05
-5.06226e-05
1.09348e-05
-5.11116e-05
1.06192e-05
-5.14624e-05
1.03777e-05
-5.17748e-05
1.01959e-05
-5.20839e-05
1.00599e-05
-5.23993e-05
9.95739e-06
-5.27212e-05
9.87828e-06
-5.30467e-05
9.81406e-06
-5.33715e-05
9.7578e-06
-5.36908e-05
9.70388e-06
-5.39998e-05
9.64799e-06
-5.42931e-05
9.58732e-06
-5.45651e-05
9.52086e-06
-5.48092e-05
9.44986e-06
-5.50178e-05
9.37818e-06
-5.51803e-05
9.31188e-06
-5.52822e-05
9.25928e-06
-5.53048e-05
9.23814e-06
-5.5237e-05
-5.50779e-05
1.11889e-05
-3.57671e-05
1.10677e-05
-4.38748e-05
1.0557e-05
-4.74357e-05
9.95092e-06
-4.91424e-05
9.37859e-06
-5.00503e-05
8.8764e-06
-5.06094e-05
8.44654e-06
-5.10325e-05
8.08019e-06
-5.14085e-05
7.76543e-06
-5.17691e-05
7.49059e-06
-5.21244e-05
7.24558e-06
-5.24762e-05
7.02202e-06
-5.28232e-05
6.8131e-06
-5.31626e-05
6.61325e-06
-5.3491e-05
6.41796e-06
-5.38045e-05
6.22373e-06
-5.40989e-05
6.02814e-06
-5.43695e-05
5.83015e-06
-5.46112e-05
5.63056e-06
-5.48182e-05
5.43263e-06
-5.49824e-05
5.24154e-06
-5.50911e-05
5.05949e-06
-5.51228e-05
4.88764e-06
-5.50652e-05
-5.5036e-05
9.52753e-06
-3.68536e-05
9.29093e-06
-4.36382e-05
8.71201e-06
-4.68568e-05
8.04731e-06
-4.84777e-05
7.39525e-06
-4.93983e-05
6.79554e-06
-5.00097e-05
6.2547e-06
-5.04917e-05
5.76636e-06
-5.09202e-05
5.32106e-06
-5.13238e-05
4.90965e-06
-5.1713e-05
4.52433e-06
-5.20909e-05
4.15869e-06
-5.24575e-05
3.80761e-06
-5.28115e-05
3.46703e-06
-5.31504e-05
3.13381e-06
-5.34713e-05
2.80569e-06
-5.37707e-05
2.48132e-06
-5.40451e-05
2.16039e-06
-5.42903e-05
1.84379e-06
-5.45016e-05
1.53415e-06
-5.46728e-05
1.23931e-06
-5.47963e-05
9.82211e-07
-5.48657e-05
7.87237e-07
-5.48702e-05
-5.47153e-05
7.8242e-06
-3.76378e-05
7.52161e-06
-4.33356e-05
6.87865e-06
-4.62139e-05
6.145e-06
-4.77441e-05
5.41159e-06
-4.86648e-05
4.71454e-06
-4.93126e-05
4.06235e-06
-4.98395e-05
3.45184e-06
-5.03096e-05
2.8764e-06
-5.07484e-05
2.3293e-06
-5.11659e-05
1.80478e-06
-5.15664e-05
1.29811e-06
-5.19509e-05
8.05632e-07
-5.2319e-05
3.24587e-07
-5.26694e-05
-1.46957e-07
-5.29997e-05
-6.10116e-07
-5.33076e-05
-1.06515e-06
-5.35901e-05
-1.51143e-06
-5.3844e-05
-1.94735e-06
-5.40657e-05
-2.36963e-06
-5.42505e-05
-2.77131e-06
-5.43946e-05
-3.14377e-06
-5.44932e-05
-3.49715e-06
-5.45168e-05
-5.43943e-05
6.17782e-06
-3.81189e-05
5.78513e-06
-4.29429e-05
5.07358e-06
-4.55023e-05
4.26505e-06
-4.69356e-05
3.44463e-06
-4.78444e-05
2.64687e-06
-4.85149e-05
1.88186e-06
-4.90745e-05
1.14888e-06
-4.95767e-05
4.43706e-07
-5.00432e-05
-2.38274e-07
-5.04839e-05
-9.01186e-07
-5.09035e-05
-1.5483e-06
-5.13037e-05
-2.18223e-06
-5.16851e-05
-2.80489e-06
-5.20467e-05
-3.41762e-06
-5.2387e-05
-4.02116e-06
-5.27041e-05
-4.61569e-06
-5.29955e-05
-5.20086e-06
-5.32589e-05
-5.77567e-06
-5.34909e-05
-6.3383e-06
-5.36879e-05
-6.88721e-06
-5.38457e-05
-7.42517e-06
-5.39553e-05
-7.95198e-06
-5.399e-05
-5.39563e-05
4.612e-06
-3.83168e-05
4.1077e-06
-4.24386e-05
3.31452e-06
-4.47091e-05
2.42175e-06
-4.60428e-05
1.50803e-06
-4.69307e-05
6.05995e-07
-4.76128e-05
-2.73566e-07
-4.8195e-05
-1.12959e-06
-4.87206e-05
-1.96418e-06
-4.92086e-05
-2.78023e-06
-4.96679e-05
-3.5804e-06
-5.01033e-05
-4.36696e-06
-5.05172e-05
-5.1417e-06
-5.09104e-05
-5.90597e-06
-5.12824e-05
-6.66077e-06
-5.16322e-05
-7.40668e-06
-5.19581e-05
-8.14393e-06
-5.22583e-05
-8.87226e-06
-5.25305e-05
-9.59092e-06
-5.27722e-05
-1.02986e-05
-5.29802e-05
-1.0994e-05
-5.31503e-05
-1.16751e-05
-5.32742e-05
-1.23302e-05
-5.33349e-05
-5.33729e-05
3.12833e-06
-3.82538e-05
2.49772e-06
-4.1808e-05
1.6102e-06
-4.38216e-05
6.25554e-07
-4.50581e-05
-3.86932e-07
-4.59182e-05
-1.3966e-06
-4.66032e-05
-2.39228e-06
-4.71993e-05
-3.37142e-06
-4.77415e-05
-4.33466e-06
-4.82454e-05
-5.28342e-06
-4.87191e-05
-6.21921e-06
-4.91675e-05
-7.1434e-06
-4.9593e-05
-8.05714e-06
-4.99966e-05
-8.96132e-06
-5.03782e-05
-9.85661e-06
-5.07369e-05
-1.07434e-05
-5.10714e-05
-1.16216e-05
-5.13801e-05
-1.24907e-05
-5.16614e-05
-1.33497e-05
-5.19132e-05
-1.41966e-05
-5.21333e-05
-1.50288e-05
-5.23181e-05
-1.58418e-05
-5.24612e-05
-1.66248e-05
-5.25519e-05
-5.26516e-05
1.72312e-06
-3.79482e-05
9.593e-07
-4.10442e-05
-2.848e-08
-4.28338e-05
-1.11469e-06
-4.39719e-05
-2.23071e-06
-4.48022e-05
-3.35033e-06
-4.54835e-05
-4.4629e-06
-4.60867e-05
-5.56485e-06
-4.66396e-05
-6.65547e-06
-4.71548e-05
-7.73502e-06
-4.76396e-05
-8.80406e-06
-4.80984e-05
-9.86322e-06
-4.85338e-05
-1.09131e-05
-4.89468e-05
-1.19541e-05
-4.93372e-05
-1.29866e-05
-4.97044e-05
-1.40106e-05
-5.00474e-05
-1.50258e-05
-5.03649e-05
-1.60313e-05
-5.06559e-05
-1.70254e-05
-5.09191e-05
-1.80057e-05
-5.11531e-05
-1.89685e-05
-5.13553e-05
-1.99085e-05
-5.15211e-05
-2.08161e-05
-5.16443e-05
-5.18004e-05
3.94094e-07
-3.74196e-05
-5.0593e-07
-4.01442e-05
-1.60552e-06
-4.17342e-05
-2.79253e-06
-4.27849e-05
-4.01437e-06
-4.35803e-05
-5.24543e-06
-4.42525e-05
-6.47501e-06
-4.48571e-05
-7.69873e-06
-4.54158e-05
-8.91483e-06
-4.59387e-05
-1.01226e-05
-4.64318e-05
-1.13219e-05
-4.68992e-05
-1.25126e-05
-4.73431e-05
-1.36949e-05
-4.77645e-05
-1.48687e-05
-4.81634e-05
-1.60341e-05
-4.8539e-05
-1.71908e-05
-4.88907e-05
-1.83381e-05
-4.92176e-05
-1.94746e-05
-4.95194e-05
-2.05982e-05
-4.97954e-05
-2.1706e-05
-5.00453e-05
-2.27939e-05
-5.02674e-05
-2.38564e-05
-5.04586e-05
-2.48847e-05
-5.0616e-05
-5.08243e-05
-8.60551e-07
-3.66896e-05
-1.89579e-06
-3.9109e-05
-3.10679e-06
-4.05232e-05
-4.40037e-06
-4.14913e-05
-5.72994e-06
-4.22508e-05
-7.0729e-06
-4.29095e-05
-8.41877e-06
-4.35113e-05
-9.76252e-06
-4.40721e-05
-1.11016e-05
-4.45996e-05
-1.24345e-05
-4.50989e-05
-1.37604e-05
-4.55733e-05
-1.50787e-05
-4.60248e-05
-1.63891e-05
-4.64542e-05
-1.76911e-05
-4.68613e-05
-1.89846e-05
-4.72456e-05
-2.02688e-05
-4.76065e-05
-2.15426e-05
-4.79438e-05
-2.28046e-05
-4.82575e-05
-2.4052e-05
-4.8548e-05
-2.52817e-05
-4.88156e-05
-2.64894e-05
-4.90597e-05
-2.76697e-05
-4.92783e-05
-2.88149e-05
-4.94708e-05
-4.97275e-05
-2.04102e-06
-3.57656e-05
-3.20832e-06
-3.79416e-05
-4.53147e-06
-3.92001e-05
-5.9323e-06
-4.00905e-05
-7.37011e-06
-4.0813e-05
-8.82442e-06
-4.14552e-05
-1.0285e-05
-4.20507e-05
-1.17463e-05
-4.26107e-05
-1.32052e-05
-4.31407e-05
-1.46595e-05
-4.36445e-05
-1.61079e-05
-4.41249e-05
-1.75493e-05
-4.45834e-05
-1.8983e-05
-4.50205e-05
-2.04082e-05
-4.5436e-05
-2.18244e-05
-4.58294e-05
-2.32306e-05
-4.62003e-05
-2.46254e-05
-4.65489e-05
-2.60069e-05
-4.68759e-05
-2.73724e-05
-4.71825e-05
-2.87183e-05
-4.74696e-05
-3.00405e-05
-4.77376e-05
-3.1334e-05
-4.79848e-05
-3.2592e-05
-4.82128e-05
-4.85141e-05
-3.14793e-06
-3.46681e-05
-4.44159e-06
-3.6648e-05
-5.87544e-06
-3.77662e-05
-7.38292e-06
-3.8583e-05
-8.92818e-06
-3.92677e-05
-1.04922e-05
-3.98911e-05
-1.20651e-05
-4.04778e-05
-1.36409e-05
-4.1035e-05
-1.52158e-05
-4.15658e-05
-1.67873e-05
-4.2073e-05
-1.83535e-05
-4.25587e-05
-1.99131e-05
-4.30238e-05
-2.14649e-05
-4.34687e-05
-2.30079e-05
-4.3893e-05
-2.45412e-05
-4.42961e-05
-2.60635e-05
-4.4678e-05
-2.75734e-05
-4.50391e-05
-2.90685e-05
-4.53808e-05
-3.0546e-05
-4.5705e-05
-3.20024e-05
-4.60132e-05
-3.34337e-05
-4.63062e-05
-3.48354e-05
-4.65831e-05
-3.6202e-05
-4.68463e-05
-4.71883e-05
-4.18009e-06
-3.34113e-05
-5.59324e-06
-3.52348e-05
-7.13477e-06
-3.62247e-05
-8.74703e-06
-3.69708e-05
-1.03978e-05
-3.7617e-05
-1.20691e-05
-3.82198e-05
-1.3751e-05
-3.87959e-05
-1.54374e-05
-3.93486e-05
-1.7124e-05
-3.98792e-05
-1.8808e-05
-4.03891e-05
-2.04871e-05
-4.08796e-05
-2.21595e-05
-4.13514e-05
-2.38239e-05
-4.18044e-05
-2.54789e-05
-4.2238e-05
-2.71233e-05
-4.26517e-05
-2.87558e-05
-4.30455e-05
-3.03745e-05
-4.34204e-05
-3.1977e-05
-4.37783e-05
-3.35604e-05
-4.41216e-05
-3.51213e-05
-4.44523e-05
-3.66563e-05
-4.47713e-05
-3.81613e-05
-4.50781e-05
-3.96317e-05
-4.53758e-05
-4.5755e-05
-5.13563e-06
-3.20084e-05
-6.66051e-06
-3.371e-05
-8.3054e-06
-3.45798e-05
-1.00195e-05
-3.52567e-05
-1.17729e-05
-3.58636e-05
-1.35481e-05
-3.64446e-05
-1.53353e-05
-3.70087e-05
-1.71279e-05
-3.7556e-05
-1.89214e-05
-3.80856e-05
-2.07127e-05
-3.85978e-05
-2.24992e-05
-3.90931e-05
-2.42788e-05
-3.95718e-05
-2.60498e-05
-4.00334e-05
-2.78108e-05
-4.0477e-05
-2.95602e-05
-4.09022e-05
-3.12965e-05
-4.13092e-05
-3.30176e-05
-4.16993e-05
-3.47211e-05
-4.20748e-05
-3.64041e-05
-4.24385e-05
-3.80636e-05
-4.27928e-05
-3.96964e-05
-4.31385e-05
-4.12994e-05
-4.34751e-05
-4.28688e-05
-4.38063e-05
-4.42194e-05
-6.01149e-06
-3.04713e-05
-7.63988e-06
-3.20816e-05
-9.38297e-06
-3.28367e-05
-1.11952e-05
-3.34445e-05
-1.30476e-05
-3.40111e-05
-1.49228e-05
-3.45695e-05
-1.68107e-05
-3.51208e-05
-1.87047e-05
-3.56621e-05
-2.05999e-05
-3.61904e-05
-2.24929e-05
-3.67047e-05
-2.4381e-05
-3.72051e-05
-2.62618e-05
-3.7691e-05
-2.81333e-05
-3.81618e-05
-2.99939e-05
-3.86164e-05
-3.18419e-05
-3.90542e-05
-3.36755e-05
-3.94757e-05
-3.54925e-05
-3.98824e-05
-3.72904e-05
-4.02769e-05
-3.90667e-05
-4.06623e-05
-4.08185e-05
-4.1041e-05
-4.25433e-05
-4.14137e-05
-4.42386e-05
-4.17799e-05
-4.59015e-05
-4.21434e-05
-4.25873e-05
-6.80322e-06
-2.88125e-05
-8.52693e-06
-3.03579e-05
-1.03629e-05
-3.10007e-05
-1.22689e-05
-3.15385e-05
-1.42164e-05
-3.20636e-05
-1.61871e-05
-3.25988e-05
-1.81709e-05
-3.3137e-05
-2.01609e-05
-3.36721e-05
-2.21521e-05
-3.41991e-05
-2.4141e-05
-3.47159e-05
-2.61245e-05
-3.52216e-05
-2.81001e-05
-3.57154e-05
-3.00658e-05
-3.61962e-05
-3.20195e-05
-3.66627e-05
-3.39593e-05
-3.71143e-05
-3.58834e-05
-3.75516e-05
-3.77896e-05
-3.79762e-05
-3.96754e-05
-3.83911e-05
-4.15383e-05
-3.87994e-05
-4.33761e-05
-3.92032e-05
-4.51867e-05
-3.96031e-05
-4.69682e-05
-3.99983e-05
-4.87187e-05
-4.0393e-05
-4.08649e-05
-7.50497e-06
-2.70456e-05
-9.31613e-06
-2.85467e-05
-1.12405e-05
-2.90764e-05
-1.32358e-05
-2.95432e-05
-1.52738e-05
-3.00257e-05
-1.73354e-05
-3.05372e-05
-1.94098e-05
-3.10626e-05
-2.14901e-05
-3.15918e-05
-2.35714e-05
-3.21179e-05
-2.56498e-05
-3.26374e-05
-2.77223e-05
-3.31491e-05
-2.97862e-05
-3.36515e-05
-3.18392e-05
-3.41432e-05
-3.38791e-05
-3.46227e-05
-3.59041e-05
-3.50894e-05
-3.79119e-05
-3.55438e-05
-3.99003e-05
-3.59878e-05
-4.18672e-05
-3.64243e-05
-4.38101e-05
-3.68564e-05
-4.57274e-05
-3.7286e-05
-4.76172e-05
-3.77132e-05
-4.94785e-05
-3.81371e-05
-5.131e-05
-3.85615e-05
-3.90587e-05
-8.10915e-06
-2.51865e-05
-1.00006e-05
-2.66552e-05
-1.20101e-05
-2.70668e-05
-1.40915e-05
-2.74618e-05
-1.6215e-05
-2.79022e-05
-1.83624e-05
-2.83898e-05
-2.0522e-05
-2.89029e-05
-2.26867e-05
-2.94272e-05
-2.48517e-05
-2.99528e-05
-2.70132e-05
-3.04759e-05
-2.91679e-05
-3.09943e-05
-3.13132e-05
-3.15062e-05
-3.34465e-05
-3.20099e-05
-3.55656e-05
-3.25036e-05
-3.76684e-05
-3.29866e-05
-3.97528e-05
-3.34594e-05
-4.18167e-05
-3.39239e-05
-4.38578e-05
-3.43832e-05
-4.58741e-05
-3.484e-05
-4.78642e-05
-3.52959e-05
-4.98265e-05
-3.57509e-05
-5.17601e-05
-3.62035e-05
-5.36647e-05
-3.66568e-05
-3.71745e-05
-8.60398e-06
-2.3254e-05
-1.05727e-05
-2.46865e-05
-1.26661e-05
-2.49735e-05
-1.48314e-05
-2.52965e-05
-1.70363e-05
-2.56972e-05
-1.92636e-05
-2.61624e-05
-2.15026e-05
-2.66639e-05
-2.37456e-05
-2.71842e-05
-2.59878e-05
-2.77106e-05
-2.82256e-05
-2.82382e-05
-3.04556e-05
-2.87643e-05
-3.2675e-05
-2.92868e-05
-3.48813e-05
-2.98036e-05
-3.70722e-05
-3.03127e-05
-3.92456e-05
-3.08132e-05
-4.13992e-05
-3.13057e-05
-4.35312e-05
-3.1792e-05
-4.56395e-05
-3.22749e-05
-4.77225e-05
-3.2757e-05
-4.97787e-05
-3.32397e-05
-5.18068e-05
-3.37229e-05
-5.38051e-05
-3.42052e-05
-5.57732e-05
-3.46888e-05
-3.52177e-05
-8.97426e-06
-2.12584e-05
-1.10246e-05
-2.26362e-05
-1.32026e-05
-2.27955e-05
-1.54506e-05
-2.30485e-05
-1.77341e-05
-2.34138e-05
-2.00362e-05
-2.38603e-05
-2.23479e-05
-2.43522e-05
-2.46627e-05
-2.48694e-05
-2.69754e-05
-2.53979e-05
-2.92823e-05
-2.59313e-05
-3.15803e-05
-2.64664e-05
-3.38664e-05
-2.70007e-05
-3.61382e-05
-2.75318e-05
-3.83933e-05
-2.80576e-05
-4.06295e-05
-2.85771e-05
-4.28447e-05
-2.90905e-05
-4.50371e-05
-2.95996e-05
-4.72051e-05
-3.01069e-05
-4.93474e-05
-3.06147e-05
-5.14628e-05
-3.11243e-05
-5.35503e-05
-3.16353e-05
-5.56085e-05
-3.2147e-05
-5.76349e-05
-3.26624e-05
-3.32018e-05
-9.2051e-06
-1.91698e-05
-1.13466e-05
-2.04947e-05
-1.36139e-05
-2.05281e-05
-1.59457e-05
-2.07168e-05
-1.8305e-05
-2.10545e-05
-2.06773e-05
-2.1488e-05
-2.30555e-05
-2.1974e-05
-2.54349e-05
-2.249e-05
-2.78109e-05
-2.30219e-05
-3.01797e-05
-2.35625e-05
-3.25381e-05
-2.4108e-05
-3.48833e-05
-2.46554e-05
-3.72129e-05
-2.52022e-05
-3.95243e-05
-2.57462e-05
-4.18154e-05
-2.6286e-05
-4.40843e-05
-2.68216e-05
-4.63292e-05
-2.73547e-05
-4.85488e-05
-2.78872e-05
-5.07424e-05
-2.84212e-05
-5.29092e-05
-2.89575e-05
-5.50489e-05
-2.94957e-05
-5.71605e-05
-3.00353e-05
-5.9243e-05
-3.05799e-05
-3.1138e-05
-9.26114e-06
-1.70901e-05
-1.15181e-05
-1.82377e-05
-1.38954e-05
-1.81508e-05
-1.63151e-05
-1.82971e-05
-1.87475e-05
-1.8622e-05
-2.11853e-05
-1.90502e-05
-2.36239e-05
-1.95355e-05
-2.60605e-05
-2.00534e-05
-2.84921e-05
-2.05903e-05
-3.09149e-05
-2.11396e-05
-3.33259e-05
-2.16969e-05
-3.57224e-05
-2.22589e-05
-3.81018e-05
-2.28228e-05
-4.04618e-05
-2.33862e-05
-4.28001e-05
-2.39477e-05
-4.51148e-05
-2.45069e-05
-4.74044e-05
-2.5065e-05
-4.96681e-05
-2.56235e-05
-5.19053e-05
-2.6184e-05
-5.41157e-05
-2.67471e-05
-5.62992e-05
-2.73122e-05
-5.84555e-05
-2.7879e-05
-6.05853e-05
-2.84501e-05
-2.90316e-05
-8.93235e-06
-1.56296e-05
-1.15264e-05
-1.56437e-05
-1.40533e-05
-1.56239e-05
-1.65621e-05
-1.57883e-05
-1.90631e-05
-1.61211e-05
-2.15599e-05
-1.65534e-05
-2.40522e-05
-1.70432e-05
-2.65387e-05
-1.75669e-05
-2.90176e-05
-1.81115e-05
-3.14861e-05
-1.86711e-05
-3.39415e-05
-1.92415e-05
-3.63811e-05
-1.98193e-05
-3.88024e-05
-2.04015e-05
-4.12029e-05
-2.09857e-05
-4.35805e-05
-2.15701e-05
-4.59334e-05
-2.2154e-05
-4.82603e-05
-2.27381e-05
-5.05604e-05
-2.33234e-05
-5.28335e-05
-2.39109e-05
-5.50797e-05
-2.45009e-05
-5.72989e-05
-2.5093e-05
-5.9491e-05
-2.56868e-05
-6.16569e-05
-2.62843e-05
-2.68899e-05
-5.83748e-07
5.83748e-07
-1.90681e-06
1.32306e-06
-3.39907e-06
1.49226e-06
-4.60525e-06
1.20617e-06
-5.45373e-06
8.48484e-07
-7.83605e-07
-4.67013e-06
-8.5871e-07
1.44246e-06
-2.18625e-06
2.6506e-06
-3.46355e-06
2.76957e-06
-4.53868e-06
2.2813e-06
-5.19533e-06
1.50513e-06
-7.78596e-07
-5.20034e-06
-9.49459e-07
2.39192e-06
-2.14881e-06
3.84995e-06
-3.27735e-06
3.89812e-06
-4.26371e-06
3.26766e-06
-4.97107e-06
2.2125e-06
-1.46636e-07
-5.60303e-06
-9.70521e-07
3.36244e-06
-2.02828e-06
4.90771e-06
-3.05008e-06
4.91992e-06
-3.98619e-06
4.20377e-06
-4.78955e-06
3.01585e-06
8.38066e-07
-5.77425e-06
-9.47075e-07
4.30951e-06
-1.87472e-06
5.83535e-06
-2.80302e-06
5.84822e-06
-3.71173e-06
5.11249e-06
-4.61285e-06
3.91696e-06
2.01323e-06
-5.78801e-06
-8.90159e-07
5.19967e-06
-1.69699e-06
6.64218e-06
-2.53828e-06
6.68951e-06
-3.42704e-06
6.00125e-06
-4.40357e-06
4.89348e-06
3.29077e-06
-5.68111e-06
-8.06504e-07
6.00618e-06
-1.49776e-06
7.33343e-06
-2.25446e-06
7.44621e-06
-3.11802e-06
6.8648e-06
-4.13827e-06
5.91373e-06
4.61746e-06
-5.46496e-06
-7.01077e-07
6.70725e-06
-1.27832e-06
7.91068e-06
-1.94837e-06
8.11626e-06
-2.77416e-06
7.69059e-06
-3.80643e-06
6.946e-06
5.9548e-06
-5.14377e-06
-5.77651e-07
7.2849e-06
-1.03948e-06
8.37251e-06
-1.61701e-06
8.6938e-06
-2.38826e-06
8.46184e-06
-3.40232e-06
7.96006e-06
7.27217e-06
-4.71969e-06
-4.39481e-07
7.72438e-06
-7.8208e-07
8.71511e-06
-1.25834e-06
9.17005e-06
-1.95557e-06
9.15908e-06
-2.92253e-06
8.92702e-06
8.54391e-06
-4.19427e-06
-2.89203e-07
8.01359e-06
-5.07607e-07
8.93351e-06
-8.71501e-07
9.53395e-06
-1.47353e-06
9.76111e-06
-2.3654e-06
9.81888e-06
9.74678e-06
-3.56827e-06
-1.29152e-07
8.14274e-06
-2.18231e-07
9.02259e-06
-4.57012e-07
9.77273e-06
-9.41507e-07
1.02456e-05
-1.73041e-06
1.06078e-05
1.08582e-05
-2.84179e-06
3.84858e-08
8.10425e-06
8.3062e-08
8.97801e-06
-1.65132e-08
9.8723e-06
-3.6055e-07
1.05896e-05
-1.01809e-06
1.12653e-05
1.18547e-05
-2.01462e-06
2.07747e-07
7.89651e-06
3.93425e-07
8.79233e-06
4.45351e-07
9.82038e-06
2.66301e-07
1.07687e-05
-2.30274e-07
1.17619e-05
1.2711e-05
-1.08654e-06
3.78059e-07
7.51845e-06
7.07475e-07
8.46292e-06
9.23967e-07
9.60389e-06
9.33733e-07
1.07589e-05
6.29544e-07
1.20661e-05
1.34003e-05
-5.97771e-08
5.44306e-07
6.97414e-06
1.01931e-06
7.98792e-06
1.41099e-06
9.2122e-06
1.63317e-06
1.05368e-05
1.55567e-06
1.21436e-05
1.3886e-05
1.06999e-06
7.01053e-07
6.27309e-06
1.32087e-06
7.3681e-06
1.8955e-06
8.63757e-06
2.35221e-06
1.008e-05
2.53787e-06
1.19579e-05
1.413e-05
2.29379e-06
8.4125e-07
5.43184e-06
1.60175e-06
6.6076e-06
2.36279e-06
7.87653e-06
3.0733e-06
9.36952e-06
3.56085e-06
1.14704e-05
1.40843e-05
3.60659e-06
9.55301e-07
4.47654e-06
1.84869e-06
5.71421e-06
2.79384e-06
6.93139e-06
3.77306e-06
8.3903e-06
4.60191e-06
1.06415e-05
1.36894e-05
4.9968e-06
1.03e-06
3.44653e-06
2.04467e-06
4.69954e-06
3.16482e-06
5.81123e-06
4.42038e-06
7.13475e-06
5.6267e-06
9.43521e-06
1.28692e-05
6.44692e-06
1.04859e-06
2.39795e-06
2.16853e-06
3.5796e-06
3.44731e-06
4.53245e-06
4.97589e-06
5.60617e-06
6.58783e-06
7.82326e-06
1.15161e-05
7.94088e-06
9.95323e-07
1.40263e-06
2.19699e-06
2.37794e-06
3.60982e-06
3.11961e-06
5.39015e-06
3.82584e-06
7.42363e-06
5.78979e-06
9.43461e-06
9.50516e-06
8.57141e-07
5.45484e-07
2.09733e-06
1.13775e-06
3.60998e-06
1.60696e-06
5.57334e-06
1.86248e-06
8.05093e-06
3.3122e-06
6.07024e-06
1.14153e-05
5.45484e-07
1.68324e-06
3.29019e-06
5.15267e-06
8.46487e-06
1.45351e-05
-8.63637e-06
-1.16634e-05
-1.14596e-05
-1.28204e-05
-1.41076e-05
-1.29759e-05
-1.66961e-05
-1.31998e-05
-1.92563e-05
-1.35609e-05
-2.18032e-05
-1.40065e-05
-2.43406e-05
-1.45058e-05
-2.68688e-05
-1.50387e-05
-2.93866e-05
-1.55936e-05
-3.18923e-05
-1.61654e-05
-3.43834e-05
-1.67504e-05
-3.68576e-05
-1.73452e-05
-3.93123e-05
-1.79468e-05
-4.17453e-05
-1.85527e-05
-4.41543e-05
-1.91611e-05
-4.65375e-05
-1.97708e-05
-4.88937e-05
-2.03819e-05
-5.12224e-05
-2.09947e-05
-5.35235e-05
-2.16098e-05
-5.57973e-05
-2.22272e-05
-5.80437e-05
-2.28466e-05
-6.02629e-05
-2.34677e-05
-6.24555e-05
-2.40916e-05
-2.47216e-05
-8.40055e-06
-8.46316e-06
-1.13628e-05
-9.85819e-06
-1.40892e-05
-1.02495e-05
-1.67298e-05
-1.05592e-05
-1.93333e-05
-1.09574e-05
-2.19181e-05
-1.14216e-05
-2.44901e-05
-1.19339e-05
-2.70504e-05
-1.24783e-05
-2.95985e-05
-1.30456e-05
-3.21325e-05
-1.36314e-05
-3.46506e-05
-1.42323e-05
-3.71506e-05
-1.48452e-05
-3.96302e-05
-1.54671e-05
-4.20872e-05
-1.60957e-05
-4.45194e-05
-1.67289e-05
-4.69248e-05
-1.73654e-05
-4.93023e-05
-1.80044e-05
-5.16515e-05
-1.86455e-05
-5.39724e-05
-1.92889e-05
-5.62653e-05
-1.99343e-05
-5.85305e-05
-2.05815e-05
-6.07678e-05
-2.12303e-05
-6.29782e-05
-2.18813e-05
-2.25358e-05
-8.39931e-06
-5.66688e-06
-1.12698e-05
-6.98765e-06
-1.40054e-05
-7.51393e-06
-1.66692e-05
-7.8954e-06
-1.92979e-05
-8.32873e-06
-2.19071e-05
-8.81248e-06
-2.4502e-05
-9.33893e-06
-2.70841e-05
-9.89619e-06
-2.96526e-05
-1.04771e-05
-3.22059e-05
-1.10781e-05
-3.4742e-05
-1.16962e-05
-3.72591e-05
-1.23281e-05
-3.9755e-05
-1.29712e-05
-4.22275e-05
-1.36232e-05
-4.46744e-05
-1.42821e-05
-4.70938e-05
-1.4946e-05
-4.94845e-05
-1.56137e-05
-5.1846e-05
-1.6284e-05
-5.41784e-05
-1.69565e-05
-5.6482e-05
-1.76306e-05
-5.87572e-05
-1.83063e-05
-6.1004e-05
-1.89835e-05
-6.32232e-05
-1.9662e-05
-2.03416e-05
-8.39045e-06
-3.05068e-06
-1.11457e-05
-4.23236e-06
-1.38522e-05
-4.80744e-06
-1.65148e-05
-5.23284e-06
-1.91514e-05
-5.69209e-06
-2.17711e-05
-6.19277e-06
-2.43773e-05
-6.73281e-06
-2.69704e-05
-7.303e-06
-2.95494e-05
-7.89808e-06
-3.21124e-05
-8.51515e-06
-3.46575e-05
-9.1511e-06
-3.71827e-05
-9.80289e-06
-3.9686e-05
-1.04679e-05
-4.21654e-05
-1.11439e-05
-4.46186e-05
-1.18289e-05
-4.70436e-05
-1.25209e-05
-4.94393e-05
-1.3218e-05
-5.18049e-05
-1.39184e-05
-5.41404e-05
-1.46209e-05
-5.64464e-05
-1.53247e-05
-5.8723e-05
-1.60298e-05
-6.09703e-05
-1.67361e-05
-6.31894e-05
-1.74429e-05
-1.81483e-05
-8.30343e-06
-5.3525e-07
-1.09583e-05
-1.57747e-06
-1.36196e-05
-2.14614e-06
-1.62636e-05
-2.58884e-06
-1.88931e-05
-3.06257e-06
-2.15104e-05
-3.57546e-06
-2.41163e-05
-4.12695e-06
-2.671e-05
-4.70935e-06
-2.92894e-05
-5.31861e-06
-3.18525e-05
-5.95206e-06
-3.43972e-05
-6.60643e-06
-3.69215e-05
-7.2786e-06
-3.94234e-05
-7.96594e-06
-4.19009e-05
-8.66636e-06
-4.43519e-05
-9.37792e-06
-4.67743e-05
-1.00985e-05
-4.91666e-05
-1.08257e-05
-5.15281e-05
-1.1557e-05
-5.38586e-05
-1.22904e-05
-5.61584e-05
-1.30249e-05
-5.84277e-05
-1.37604e-05
-6.0667e-05
-1.44968e-05
-6.2877e-05
-1.52329e-05
-1.59649e-05
-8.1152e-06
1.89884e-06
-1.06871e-05
9.94418e-07
-1.32974e-05
4.64208e-07
-1.59111e-05
2.48466e-08
-1.85212e-05
-4.5252e-07
-2.11245e-05
-9.72119e-07
-2.37193e-05
-1.53217e-06
-2.63032e-05
-2.1255e-06
-2.88732e-05
-2.74853e-06
-3.14269e-05
-3.39837e-06
-3.3962e-05
-4.07141e-06
-3.64763e-05
-4.76429e-06
-3.89679e-05
-5.47429e-06
-4.14349e-05
-6.19938e-06
-4.38751e-05
-6.93771e-06
-4.62865e-05
-7.68712e-06
-4.86674e-05
-8.44485e-06
-5.10166e-05
-9.20778e-06
-5.33337e-05
-9.97324e-06
-5.5619e-05
-1.07397e-05
-5.78727e-05
-1.15067e-05
-6.0095e-05
-1.22745e-05
-6.2287e-05
-1.30409e-05
-1.38005e-05
-7.82196e-06
4.25585e-06
-1.03211e-05
3.4936e-06
-1.28778e-05
3.02086e-06
-1.54529e-05
2.59994e-06
-1.80335e-05
2.12813e-06
-2.06127e-05
1.60708e-06
-2.31864e-05
1.04151e-06
-2.57507e-05
4.38755e-07
-2.83018e-05
-1.97376e-07
-3.08368e-05
-8.63386e-07
-3.33531e-05
-1.55514e-06
-3.58485e-05
-2.26889e-06
-3.8321e-05
-3.00173e-06
-4.07688e-05
-3.7516e-06
-4.31898e-05
-4.51674e-06
-4.55818e-05
-5.29505e-06
-4.79431e-05
-6.08362e-06
-5.0272e-05
-6.87887e-06
-5.25678e-05
-7.67741e-06
-5.48304e-05
-8.47705e-06
-5.70599e-05
-9.27721e-06
-5.92565e-05
-1.00779e-05
-6.14214e-05
-1.08761e-05
-1.16641e-05
-7.42295e-06
6.53503e-06
-9.85404e-06
5.92469e-06
-1.2355e-05
5.52181e-06
-1.48853e-05
5.13028e-06
-1.74285e-05
4.6713e-06
-1.99747e-05
4.15326e-06
-2.2518e-05
3.58485e-06
-2.50534e-05
2.97416e-06
-2.75765e-05
2.3257e-06
-3.00838e-05
1.64386e-06
-3.25724e-05
9.33473e-07
-3.50401e-05
1.9881e-07
-3.74849e-05
-5.56942e-07
-3.99049e-05
-1.3316e-06
-4.22981e-05
-2.12348e-06
-4.46626e-05
-2.9306e-06
-4.69961e-05
-3.7501e-06
-4.92968e-05
-4.57812e-06
-5.15635e-05
-5.41072e-06
-5.37956e-05
-6.24501e-06
-5.59928e-05
-7.08001e-06
-5.8155e-05
-7.91568e-06
-6.02824e-05
-8.74864e-06
-9.5635e-06
-6.91768e-06
8.73302e-06
-9.28154e-06
8.28854e-06
-1.17249e-05
7.96514e-06
-1.42058e-05
7.61121e-06
-1.67049e-05
7.17045e-06
-1.92104e-05
6.65871e-06
-2.1715e-05
6.0895e-06
-2.42129e-05
5.47206e-06
-2.66992e-05
4.81196e-06
-2.917e-05
4.11465e-06
-3.16223e-05
3.38577e-06
-3.40537e-05
2.6302e-06
-3.64621e-05
1.85153e-06
-3.88459e-05
1.05212e-06
-4.1203e-05
2.33656e-07
-4.35315e-05
-6.02073e-07
-4.58292e-05
-1.45238e-06
-4.80939e-05
-2.31343e-06
-5.03237e-05
-3.18091e-06
-5.25174e-05
-4.05132e-06
-5.46743e-05
-4.92318e-06
-5.67935e-05
-5.79646e-06
-5.88741e-05
-6.66806e-06
-7.50547e-06
-6.30534e-06
1.08441e-05
-8.60049e-06
1.05837e-05
-1.09844e-05
1.03491e-05
-1.34125e-05
1.00392e-05
-1.58623e-05
9.62032e-06
-1.83204e-05
9.11681e-06
-2.07789e-05
8.54791e-06
-2.32312e-05
7.92442e-06
-2.56724e-05
7.25314e-06
-2.80983e-05
6.54059e-06
-3.05059e-05
5.79333e-06
-3.28926e-05
5.01687e-06
-3.52563e-05
4.21526e-06
-3.75953e-05
3.39114e-06
-3.99079e-05
2.54622e-06
-4.21921e-05
1.68212e-06
-4.44456e-05
8.01205e-07
-4.66661e-05
-9.29405e-08
-4.88511e-05
-9.95913e-07
-5.09987e-05
-1.90375e-06
-5.31075e-05
-2.81442e-06
-5.51763e-05
-3.72765e-06
-5.7204e-05
-4.64036e-06
-5.4987e-06
-5.58437e-06
1.28602e-05
-7.80806e-06
1.28074e-05
-1.01316e-05
1.26726e-05
-1.25044e-05
1.2412e-05
-1.49009e-05
1.20169e-05
-1.73062e-05
1.15221e-05
-1.97116e-05
1.09534e-05
-2.21111e-05
1.03238e-05
-2.44993e-05
9.64141e-06
-2.68724e-05
8.91366e-06
-2.9227e-05
8.14799e-06
-3.15608e-05
7.35058e-06
-3.38715e-05
6.52598e-06
-3.61575e-05
5.67712e-06
-3.84171e-05
4.80581e-06
-4.06485e-05
3.91351e-06
-4.28495e-05
3.00221e-06
-4.50175e-05
2.07507e-06
-4.71497e-05
1.13629e-06
-4.92436e-05
1.90126e-07
-5.12972e-05
-7.6082e-07
-5.33092e-05
-1.71563e-06
-5.52798e-05
-2.66974e-06
-3.55347e-06
-4.75281e-06
1.47712e-05
-6.90151e-06
1.49561e-05
-9.16451e-06
1.49356e-05
-1.1481e-05
1.47285e-05
-1.38215e-05
1.43574e-05
-1.61696e-05
1.38701e-05
-1.85163e-05
1.33001e-05
-2.08561e-05
1.26636e-05
-2.31841e-05
1.19695e-05
-2.54966e-05
1.12262e-05
-2.77905e-05
1.04418e-05
-3.00632e-05
9.62333e-06
-3.23128e-05
8.7756e-06
-3.45376e-05
7.90193e-06
-3.67361e-05
7.00423e-06
-3.89064e-05
6.08386e-06
-4.10466e-05
5.14243e-06
-4.31541e-05
4.18258e-06
-4.5226e-05
3.20811e-06
-4.72592e-05
2.22332e-06
-4.92513e-05
1.23135e-06
-5.12009e-05
2.33997e-07
-5.31078e-05
-7.62915e-07
-1.68067e-06
-3.80856e-06
1.65652e-05
-5.87846e-06
1.7026e-05
-8.08152e-06
1.71387e-05
-1.03422e-05
1.69892e-05
-1.26255e-05
1.66407e-05
-1.49133e-05
1.61578e-05
-1.71966e-05
1.55834e-05
-1.94707e-05
1.49377e-05
-2.17318e-05
1.42305e-05
-2.39764e-05
1.34708e-05
-2.62019e-05
1.26673e-05
-2.84059e-05
1.18273e-05
-3.05865e-05
1.09563e-05
-3.27422e-05
1.00576e-05
-3.48715e-05
9.13354e-06
-3.69729e-05
8.18522e-06
-3.90444e-05
7.21398e-06
-4.10838e-05
6.22188e-06
-4.30878e-05