/*--------------------------------*- C++ -*----------------------------------*\
  =========                 |
  \\      /  F ield         | OpenFOAM: The Open Source CFD Toolbox
   \\    /   O peration     | Website:  https://openfoam.org
    \\  /    A nd           | Version:  11
     \\/     M anipulation  |
\*---------------------------------------------------------------------------*/
FoamFile
{
    format      ascii;
    class       volVectorField;
    location    "1.72";
    object      U;
}
// * * * * * * * * * * * * * * * * * * * * * * * * * * * * * * * * * * * * * //

dimensions      [0 1 -1 0 0 0 0];

internalField   nonuniform List<vector> 
2880
(
(-0.0652542 -0.076117 -1.26858e-20)
(-0.076789 -0.117 -6.36277e-19)
(-0.0559068 -0.0499012 -4.52155e-19)
(-0.0258756 0.137396 -1.56924e-19)
(0.100981 0.308021 -7.89997e-20)
(0.209814 0.870426 -1.88356e-19)
(-0.0819638 -0.0978702 0)
(-0.0659976 -0.098607 1.38817e-19)
(-0.0147221 -0.00167456 0)
(0.0454765 0.182086 -1.61498e-19)
(0.167704 0.383131 -1.82211e-20)
(0.37721 0.709867 0)
(-0.0928372 -0.0985798 -2.98995e-21)
(-0.0491148 -0.0740172 -1.25587e-19)
(0.0278107 0.0324784 -1.22985e-20)
(0.120015 0.207127 4.91511e-21)
(0.281131 0.409134 -1.95411e-20)
(0.495662 0.657723 6.53711e-21)
(-0.102504 -0.09405 0)
(-0.0321705 -0.0528869 0)
(0.0677469 0.0579721 1.16682e-20)
(0.187618 0.223628 0)
(0.368152 0.41684 7.8041e-21)
(0.582496 0.617163 -4.71772e-20)
(-0.110439 -0.0880526 -3.58627e-19)
(-0.0159706 -0.035239 2.03946e-19)
(0.103678 0.0774514 -1.10367e-20)
(0.246848 0.234446 3.69213e-20)
(0.438774 0.415742 -1.3867e-19)
(0.647384 0.578736 4.71166e-20)
(-0.11647 -0.0825519 3.56774e-19)
(-0.00139547 -0.0209348 -2.18735e-19)
(0.134881 0.0918831 0)
(0.296965 0.241307 -2.9519e-19)
(0.496087 0.409804 1.23454e-19)
(0.692537 0.545146 0)
(-0.120972 -0.078508 -7.54029e-19)
(0.0110086 -0.00991698 4.41122e-19)
(0.161107 0.101895 -3.44458e-19)
(0.33845 0.244972 2.60411e-19)
(0.541449 0.401283 -2.17875e-19)
(0.723893 0.515437 0)
(-0.124216 -0.0762894 7.29461e-19)
(0.0209593 -0.00206417 -1.27114e-18)
(0.182309 0.108031 -3.43341e-19)
(0.371857 0.245618 -6.67614e-19)
(0.576369 0.39164 3.16868e-19)
(0.745018 0.488819 0)
(-0.126372 -0.0758943 0)
(0.0283148 0.00288084 1.68865e-18)
(0.198515 0.110729 6.49179e-19)
(0.397765 0.243476 3.82394e-20)
(0.602449 0.381054 5.11082e-19)
(0.758205 0.464877 0)
(-0.127598 -0.0770851 0)
(0.0329655 0.00528032 -8.45686e-19)
(0.209744 0.110392 -6.96499e-19)
(0.416627 0.238788 1.13989e-18)
(0.620893 0.369521 -4.48599e-19)
(0.765383 0.442739 0)
(-0.128062 -0.0794659 1.44375e-18)
(0.0348116 0.00555163 -7.94493e-19)
(0.215982 0.107402 6.59599e-19)
(0.428745 0.231752 -6.13355e-19)
(0.632618 0.356922 -1.25731e-19)
(0.767935 0.421787 -3.14403e-19)
(-0.127962 -0.0825391 -1.44505e-18)
(0.0337484 0.00412275 8.55054e-19)
(0.217124 0.102076 0)
(0.43433 0.222497 -6.20154e-19)
(0.638469 0.343139 5.2586e-19)
(0.766794 0.401528 4.23052e-19)
(-0.12752 -0.0857418 2.25466e-20)
(0.0296664 0.00141135 0)
(0.213015 0.0946431 7.19212e-19)
(0.433474 0.210907 1.25266e-18)
(0.639028 0.328003 -5.2841e-19)
(0.762601 0.381633 0)
(-0.126991 -0.0885071 -1.44295e-18)
(0.0224791 -0.0022136 0)
(0.203523 0.0853293 4.41719e-23)
(0.426079 0.196837 -6.32326e-19)
(0.634412 0.311217 0)
(0.755773 0.361731 0)
(-0.126478 -0.0901792 2.34129e-20)
(0.0121296 -0.00646316 0)
(0.188453 0.0743083 -6.45288e-19)
(0.411883 0.180088 -8.00729e-20)
(0.624611 0.29241 0)
(0.746603 0.341383 0)
(-0.126333 -0.0901388 2.75322e-18)
(-0.00129664 -0.0110722 9.00749e-19)
(0.167619 0.0617353 0)
(0.390489 0.160364 -6.4785e-19)
(0.609412 0.271031 0)
(0.735194 0.320058 0)
(-0.126688 -0.0883231 -1.44101e-18)
(-0.0176208 -0.0158122 -9.18949e-19)
(0.140902 0.0477774 -6.6361e-19)
(0.361299 0.13739 5.71893e-19)
(0.588052 0.246427 1.3516e-19)
(0.721631 0.297207 -1.13752e-19)
(-0.12844 -0.0839357 0)
(-0.036484 -0.0205397 5.88357e-20)
(0.108272 0.0326287 1.49354e-18)
(0.323611 0.110987 0)
(0.559284 0.217925 -4.24094e-19)
(0.705742 0.272102 3.33659e-19)
(-0.132776 -0.0774259 -4.5888e-20)
(-0.0571468 -0.0253032 -9.91e-19)
(0.0698719 0.0165946 4.84803e-20)
(0.276809 0.0811226 6.70254e-19)
(0.521205 0.184991 1.1312e-18)
(0.68698 0.243835 -7.89557e-19)
(-0.136637 -0.062223 -4.29749e-20)
(-0.0778555 -0.0302133 3.05018e-20)
(0.0264899 0.000281997 -1.59658e-18)
(0.220476 0.0477451 -6.79889e-19)
(0.470723 0.147194 8.64508e-22)
(0.664311 0.210871 4.52743e-19)
(-0.13296 -0.052397 1.89558e-20)
(-0.0960629 -0.0349761 4.03994e-22)
(-0.0197749 -0.0154408 8.15985e-19)
(0.154509 0.011394 -6.87557e-19)
(0.401967 0.103809 -1.15531e-18)
(0.634833 0.168235 0)
(-0.126912 -0.046713 0)
(-0.111109 -0.0377657 1.04892e-18)
(-0.0655858 -0.0293296 -4.1809e-19)
(0.0791114 -0.0254309 3.54608e-19)
(0.303674 0.0535809 5.87048e-19)
(0.591046 0.0994818 2.23921e-19)
(-0.117136 -0.0387588 -1.13431e-20)
(-0.122107 -0.0383004 5.19656e-19)
(-0.106316 -0.0400244 4.62615e-19)
(-0.00640907 -0.059186 3.60778e-19)
(0.149608 -0.00305279 0)
(0.54031 0.00861389 -4.2361e-19)
(-0.0769202 -0.0280028 -8.42187e-19)
(-0.108876 -0.0371477 -5.63239e-19)
(-0.128892 -0.0428916 -4.50563e-19)
(-0.0855144 -0.0635356 -3.21472e-19)
(-0.0635611 -0.0261925 -3.37952e-19)
(0.496803 0.0105053 2.60221e-19)
(0.990245 0.918276 9.80929e-22)
(1.28174 0.706146 5.12657e-21)
(1.37754 0.557783 -1.53148e-20)
(1.40204 0.45214 -2.29065e-20)
(1.3937 0.372031 -1.3508e-20)
(1.37385 0.310388 8.65537e-21)
(1.35189 0.262988 -1.70837e-22)
(1.33096 0.226077 -7.21671e-21)
(1.31179 0.196816 2.6601e-21)
(1.29435 0.173188 -1.17763e-21)
(1.27834 0.153751 -1.78504e-21)
(1.26339 0.13746 -9.60681e-21)
(1.2492 0.123561 2.38378e-20)
(1.23545 0.111502 -1.69365e-20)
(1.22187 0.100884 0)
(1.2082 0.0914206 1.77788e-20)
(1.19416 0.0829227 -3.29448e-20)
(1.17945 0.0752878 5.0438e-20)
(1.16373 0.0684719 -4.8707e-20)
(1.14656 0.0623821 0)
(1.12736 0.0569123 1.51306e-20)
(1.10564 0.053183 -3.35529e-20)
(1.08138 0.0558015 4.84682e-20)
(1.05383 0.0650735 0)
(0.969751 0.811791 -1.00101e-21)
(1.22479 0.692534 6.85741e-21)
(1.32105 0.560765 5.09511e-21)
(1.34822 0.460436 4.15038e-21)
(1.34594 0.38284 6.01056e-21)
(1.333 0.32257 -9.27096e-21)
(1.31716 0.275669 0)
(1.30122 0.238691 -5.36213e-21)
(1.28603 0.209027 4.94694e-21)
(1.27169 0.184808 0)
(1.25807 0.164684 2.03033e-20)
(1.24498 0.147674 -7.56716e-22)
(1.2322 0.133058 9.51589e-21)
(1.21951 0.120305 -1.05087e-20)
(1.20672 0.10902 9.9449e-21)
(1.19362 0.0989122 0)
(1.18001 0.0897761 1.97974e-20)
(1.16565 0.0814856 4.60687e-22)
(1.15026 0.0739684 -2.35042e-20)
(1.1335 0.0671043 -1.84638e-20)
(1.11486 0.0607408 1.3075e-20)
(1.09382 0.0558791 0)
(1.0703 0.0569994 0)
(1.04436 0.0659857 0)
(0.939261 0.766366 0)
(1.17807 0.6707 -4.59067e-21)
(1.26688 0.552882 0)
(1.29582 0.459873 -7.34641e-21)
(1.29992 0.387166 0)
(1.29352 0.329674 -1.14701e-21)
(1.28324 0.284156 0)
(1.27184 0.247776 0)
(1.26029 0.21825 -9.62196e-22)
(1.24887 0.193882 -9.20008e-22)
(1.23756 0.173436 -8.82477e-22)
(1.22629 0.156006 -3.18591e-21)
(1.21493 0.140921 2.17785e-21)
(1.20337 0.127683 0)
(1.19145 0.115914 -5.81521e-21)
(1.17903 0.105331 4.79165e-21)
(1.16595 0.0957208 0)
(1.15203 0.086939 -6.9759e-22)
(1.13708 0.0788899 -9.67599e-22)
(1.1208 0.0714443 5.69981e-21)
(1.10277 0.064397 9.09166e-21)
(1.08244 0.0583614 -5.47833e-21)
(1.05976 0.0570154 6.40654e-22)
(1.03608 0.0667488 -6.72167e-22)
(0.928775 0.707891 0)
(1.13076 0.633982 2.95399e-21)
(1.21508 0.536248 -4.55385e-21)
(1.24771 0.453312 1.40307e-21)
(1.25709 0.38622 -2.94457e-21)
(1.25603 0.33221 1.57539e-20)
(1.25055 0.288796 0)
(1.2432 0.253608 0)
(1.23498 0.224683 9.50297e-22)
(1.22623 0.200533 8.94733e-21)
(1.2171 0.180058 -6.62382e-21)
(1.20758 0.162445 0)
(1.19766 0.147087 8.09492e-22)
(1.18727 0.133527 0)
(1.17631 0.121416 -6.45943e-21)
(1.16468 0.110487 6.88857e-21)
(1.15227 0.100538 0)
(1.13895 0.091423 6.78207e-21)
(1.12456 0.0830485 6.79838e-22)
(1.1089 0.0753163 -6.64163e-22)
(1.09166 0.0680002 -1.01526e-20)
(1.07247 0.0610075 1.11245e-20)
(1.05099 0.0555859 -6.49786e-22)
(1.02656 0.0675225 -5.21031e-21)
(0.920226 0.65115 7.56411e-20)
(1.09116 0.596738 1.73749e-20)
(1.16997 0.515921 1.06091e-20)
(1.20413 0.442538 -4.91503e-20)
(1.21743 0.38139 0)
(1.22083 0.331271 3.98617e-21)
(1.21948 0.29033 2.36076e-20)
(1.21566 0.256661 -9.01089e-21)
(1.21037 0.228623 -1.98265e-23)
(1.20405 0.204939 3.67698e-20)
(1.19693 0.184649 -1.71957e-20)
(1.18909 0.16703 1.63543e-20)
(1.18058 0.151541 1.23488e-22)
(1.17139 0.137767 -4.4319e-20)
(1.16146 0.12539 2.81489e-20)
(1.15074 0.114166 2.72531e-20)
(1.13916 0.103907 -2.61019e-20)
(1.12662 0.0944814 -3.14719e-20)
(1.11301 0.0858064 2.44973e-20)
(1.0982 0.0777511 0)
(1.08209 0.0699421 2.31361e-20)
(1.06451 0.0623761 2.37126e-20)
(1.04428 0.0585864 3.04093e-21)
(1.01776 0.0732086 -4.70695e-20)
(0.91314 0.60194 -3.27791e-19)
(1.05751 0.560803 1.99061e-20)
(1.13003 0.49357 0)
(1.16502 0.429096 -5.33733e-20)
(1.1813 0.373753 0)
(1.18822 0.327556 -2.85418e-20)
(1.19024 0.289239 2.70678e-20)
(1.18941 0.257283 -1.00001e-19)
(1.18667 0.230328 -6.98756e-20)
(1.18252 0.20729 2.07451e-20)
(1.17723 0.187341 -4.05658e-20)
(1.17098 0.169849 -3.61178e-20)
(1.16383 0.15433 -1.65064e-21)
(1.15583 0.140412 -3.38099e-20)
(1.14697 0.1278 0)
(1.13723 0.116266 3.07426e-20)
(1.12655 0.105628 0)
(1.11488 0.0957571 2.83914e-20)
(1.10213 0.0865531 -2.74074e-20)
(1.08821 0.0778046 0)
(1.07307 0.0690403 -2.55667e-20)
(1.05639 0.0606889 -4.98708e-20)
(1.03634 0.0578952 4.86686e-20)
(1.01075 0.0693569 -5.44875e-20)
(0.906078 0.560058 -1.40782e-20)
(1.02911 0.527598 -2.01991e-19)
(1.09532 0.47086 3.2607e-20)
(1.13012 0.414085 9.18587e-20)
(1.14841 0.364114 -3.99632e-20)
(1.15807 0.321696 3.6048e-20)
(1.16286 0.286008 3.03462e-20)
(1.16453 0.255842 7.83338e-20)
(1.16399 0.230077 -5.5492e-20)
(1.16176 0.207801 0)
(1.15814 0.188305 4.02303e-20)
(1.15335 0.17104 3.93984e-20)
(1.1475 0.155577 -1.7057e-21)
(1.14067 0.14158 -2.89724e-21)
(1.13286 0.128777 -3.46872e-20)
(1.1241 0.116951 -3.09791e-23)
(1.11434 0.10593 -9.28789e-20)
(1.10355 0.0955867 -8.71664e-20)
(1.09167 0.0858116 8.42616e-20)
(1.07864 0.0763546 5.4608e-20)
(1.06445 0.066745 -2.75107e-20)
(1.04865 0.0577333 1.06997e-19)
(1.0292 0.0551086 -1.04149e-19)
(1.00553 0.0641725 -1.31352e-21)
(0.898558 0.524199 2.22979e-19)
(1.00465 0.497222 -1.29112e-20)
(1.06486 0.448477 -6.41702e-20)
(1.09891 0.398218 1.09356e-19)
(1.11857 0.35309 -4.69208e-20)
(1.13031 0.314198 -8.09805e-20)
(1.13731 0.281045 6.66122e-20)
(1.14106 0.252664 -6.11318e-20)
(1.14241 0.228134 5.18442e-20)
(1.14186 0.206689 0)
(1.13975 0.187725 0)
(1.13631 0.170768 8.51105e-20)
(1.13168 0.155437 -1.60334e-19)
(1.12596 0.14143 3.67954e-20)
(1.11919 0.128499 3.49043e-20)
(1.11139 0.11644 1.01657e-19)
(1.10255 0.105094 3.16791e-20)
(1.09265 0.0943418 -3.25812e-20)
(1.08166 0.0840794 -1.21229e-19)
(1.06955 0.0740522 8.35755e-22)
(1.05635 0.0638219 4.84466e-23)
(1.04154 0.0543146 8.20667e-20)
(1.02286 0.0514515 0)
(1.00089 0.05848 2.67648e-20)
(0.890416 0.492866 4.83248e-19)
(0.983127 0.469481 1.75808e-19)
(1.03796 0.426864 -6.91664e-20)
(1.07091 0.382004 1.1801e-19)
(1.09142 0.34114 -1.46235e-19)
(1.10475 0.305464 1.66327e-19)
(1.1135 0.274692 0)
(1.11899 0.248038 -1.34881e-19)
(1.12194 0.224742 5.80156e-20)
(1.12287 0.204162 -5.40183e-20)
(1.12211 0.185785 0)
(1.11991 0.169199 0)
(1.11643 0.15407 0)
(1.11178 0.140126 -8.3621e-20)
(1.10601 0.12714 0)
(1.09915 0.114927 -7.55245e-20)
(1.09123 0.103338 0)
(1.08224 0.0922727 3.26294e-20)
(1.07216 0.0816348 -1.29386e-19)
(1.06102 0.0711798 9.45273e-22)
(1.04889 0.0605069 2.42459e-19)
(1.03519 0.0506338 -8.93951e-20)
(1.01742 0.0473801 -1.20557e-19)
(0.997069 0.052658 1.15659e-19)
(0.881612 0.465046 -4.81255e-19)
(0.963808 0.444122 3.88193e-19)
(1.0139 0.406209 0)
(1.04565 0.365788 -2.56941e-19)
(1.06667 0.328597 0)
(1.08117 0.295812 -1.84595e-19)
(1.09133 0.267231 1.61241e-19)
(1.09825 0.24221 2.7711e-19)
(1.10258 0.220117 0)
(1.10481 0.200412 0)
(1.10527 0.182656 -4.02804e-21)
(1.10422 0.166492 -9.8287e-20)
(1.10182 0.151627 -9.41398e-20)
(1.09818 0.137815 1.72182e-19)
(1.09337 0.124851 0)
(1.08745 0.112565 1.55719e-19)
(1.08045 0.100827 -7.67325e-20)
(1.07237 0.0895497 0)
(1.06323 0.0786531 2.08718e-19)
(1.0531 0.0679088 -2.02167e-19)
(1.04209 0.0569562 1.95055e-19)
(1.02956 0.0468528 -2.54818e-19)
(1.01281 0.0431627 1.2475e-19)
(0.994069 0.0468909 6.19896e-20)
(0.872177 0.439968 -1.19494e-19)
(0.94611 0.420852 -6.83957e-19)
(0.992095 0.386528 7.70384e-20)
(1.0227 0.349765 5.96945e-20)
(1.04397 0.315727 6.0768e-21)
(1.05937 0.285487 4.74204e-19)
(1.07065 0.25889 -3.2982e-19)
(1.07876 0.235386 8.64905e-21)
(1.08429 0.214445 -1.36071e-19)
(1.08767 0.195605 0)
(1.08925 0.178491 -2.45012e-21)
(1.08925 0.16279 1.04076e-19)
(1.08786 0.148243 1.93307e-19)
(1.08519 0.134628 -2.70262e-19)
(1.08133 0.121758 1.73835e-19)
(1.07633 0.109481 -3.29541e-19)
(1.07024 0.0976846 3.16729e-19)
(1.06309 0.0862973 -2.29627e-19)
(1.05492 0.0752565 4.59597e-22)
(1.04583 0.0643548 -3.76134e-21)
(1.03596 0.0532744 -1.36304e-19)
(1.02465 0.0430737 0)
(1.00901 0.038945 -2.67752e-19)
(0.991868 0.0412943 2.57001e-19)
(0.862057 0.417 3.91773e-19)
(0.929604 0.399388 5.05614e-19)
(0.972094 0.367832 0)
(1.00164 0.334052 0)
(1.02302 0.302689 0)
(1.0391 0.274663 -1.92793e-19)
(1.05131 0.249839 8.34185e-20)
(1.06044 0.227731 -7.16568e-20)
(1.06701 0.207879 2.77976e-19)
(1.07143 0.189886 0)
(1.07402 0.173424 -1.1606e-19)
(1.07502 0.158218 -1.82393e-21)
(1.07459 0.144036 -9.92397e-20)
(1.07286 0.130676 -9.84924e-20)
(1.06991 0.11797 -9.3505e-20)
(1.06582 0.105783 8.49154e-20)
(1.06065 0.0940161 -1.66935e-19)
(1.05443 0.0826188 2.38481e-19)
(1.04724 0.0715454 -7.98096e-20)
(1.0392 0.0606132 -7.59922e-20)
(1.03049 0.0495479 5.03987e-19)
(1.02039 0.0393752 -2.81328e-19)
(1.00594 0.0348284 0)
(0.9904 0.0359551 3.00143e-21)
(0.851273 0.395688 -6.37642e-19)
(0.913967 0.379482 2.09219e-19)
(0.953488 0.350077 -8.8323e-20)
(0.982097 0.318695 0)
(1.00353 0.289571 2.44431e-19)
(1.02016 0.263454 2.10467e-19)
(1.03315 0.240205 1.84656e-19)
(1.04318 0.219369 1.58941e-19)
(1.05069 0.200542 -2.89466e-19)
(1.05606 0.183371 -2.67373e-19)
(1.05959 0.167565 2.1577e-21)
(1.06152 0.15288 3.42626e-19)
(1.06201 0.139105 -1.09236e-19)
(1.06119 0.126058 9.85568e-20)
(1.05914 0.113583 9.36683e-20)
(1.05594 0.101561 -9.36413e-20)
(1.05168 0.0899121 -3.98722e-21)
(1.0464 0.0786028 -1.68622e-19)
(1.04018 0.0676057 1.63521e-19)
(1.0332 0.0567645 -8.04001e-20)
(1.02564 0.045847 -7.7619e-20)
(1.01675 0.0358163 0)
(1.00354 0.0308863 2.93468e-19)
(0.989584 0.0309406 -6.29024e-19)
(0.83986 0.375745 0)
(0.898936 0.360942 0)
(0.935924 0.333177 0)
(0.963751 0.303689 -1.43015e-19)
(0.985231 0.276416 -1.16056e-19)
(1.00235 0.251931 -3.14315e-19)
(1.01604 0.23007 1.03122e-19)
(1.02687 0.210392 0)
(1.03524 0.192527 -1.49718e-19)
(1.0415 0.176151 2.75411e-19)
(1.04593 0.161003 -2.57019e-19)
(1.04875 0.146863 3.51316e-21)
(1.05012 0.133536 -4.6367e-21)
(1.05018 0.120854 0)
(1.04901 0.108675 9.75627e-20)
(1.0467 0.0968944 1.90422e-19)
(1.04333 0.0854499 -1.88721e-19)
(1.03899 0.0743251 1.76875e-19)
(1.03375 0.0635099 -1.7153e-19)
(1.02782 0.0528743 3.25464e-19)
(1.02137 0.0422248 -4.7956e-19)
(1.01365 0.0324363 -8.4994e-20)
(1.00173 0.0271706 3.02049e-19)
(0.989326 0.0263012 3.01897e-19)
(0.827765 0.356924 6.63853e-19)
(0.884263 0.343597 -1.11837e-19)
(0.919087 0.317038 3.64399e-19)
(0.94631 0.288997 -3.05725e-19)
(0.967876 0.263224 1.25248e-19)
(0.985473 0.240123 -2.21122e-19)
(0.999821 0.219484 -9.16471e-20)
(1.01142 0.200859 0)
(1.02061 0.183896 1.55256e-19)
(1.02771 0.168292 -1.45271e-19)
(1.03299 0.153807 1.30132e-19)
(1.03667 0.140234 0)
(1.03891 0.127395 -2.3553e-19)
(1.03982 0.11513 4.40156e-19)
(1.03951 0.103312 -2.14406e-19)
(1.03808 0.0918491 -9.82561e-20)
(1.0356 0.0806944 -3.66216e-21)
(1.03218 0.0698486 -9.04627e-20)
(1.02791 0.0593166 1.00759e-21)
(1.023 0.0489927 -8.64465e-20)
(1.01762 0.0387171 6.70646e-19)
(1.01103 0.0292577 -2.44345e-19)
(1.00041 0.0237169 8.08958e-20)
(0.989533 0.0220723 0)
(0.814843 0.339042 -9.42526e-19)
(0.869694 0.327322 -1.13377e-19)
(0.902682 0.301551 -3.63534e-19)
(0.929503 0.274549 1.53564e-19)
(0.951244 0.249962 2.72185e-19)
(0.96936 0.228024 1.15955e-19)
(0.984372 0.208458 0)
(0.996723 0.190797 0)
(1.00671 0.174688 0)
(1.01463 0.159839 0)
(1.02075 0.146021 -1.36338e-19)
(1.02527 0.133042 1.29228e-19)
(1.02835 0.120731 1.18451e-19)
(1.0301 0.108939 -1.16132e-19)
(1.03065 0.0975476 2.17646e-19)
(1.03007 0.0864773 0)
(1.02848 0.0756976 9.84087e-20)
(1.02597 0.0652229 -9.47819e-20)
(1.02264 0.05507 9.46669e-20)
(1.01871 0.0451547 -9.13246e-20)
(1.01434 0.0353447 -4.3225e-19)
(1.00881 0.0262888 6.78343e-19)
(0.99952 0.020547 -7.80298e-20)
(0.990112 0.0182751 -5.64636e-19)
(0.800858 0.321943 6.72084e-19)
(0.854923 0.312014 -1.14765e-19)
(0.886424 0.286604 -9.20103e-20)
(0.91307 0.26024 -2.39676e-19)
(0.935128 0.236559 -2.65963e-19)
(0.953854 0.215591 1.14779e-19)
(0.969576 0.196977 1.0401e-19)
(0.982701 0.180208 0)
(0.993491 0.164916 1.65389e-19)
(1.00223 0.150812 5.59278e-22)
(1.00917 0.137674 1.40761e-19)
(1.01452 0.125319 -2.67965e-19)
(1.01842 0.11358 0)
(1.02101 0.102317 1.16372e-19)
(1.02239 0.0914192 1.13798e-19)
(1.02266 0.0808187 -2.17116e-19)
(1.02193 0.0704983 1.05542e-19)
(1.02031 0.0604838 1.99805e-19)
(1.01789 0.0508002 -2.88642e-19)
(1.0149 0.0413808 1.86191e-19)
(1.01147 0.0321148 0)
(1.00695 0.0235278 0)
(0.99897 0.0176716 -3.38194e-19)
(0.990973 0.0149184 3.1084e-19)
(0.785577 0.305489 1.34338e-19)
(0.839553 0.297581 2.32074e-19)
(0.869995 0.272028 1.91755e-19)
(0.896792 0.245932 7.85729e-20)
(0.919331 0.222901 2.76734e-19)
(0.938814 0.20275 1.20432e-19)
(0.955332 0.18499 -2.08236e-19)
(0.969277 0.169063 -1.8698e-19)
(0.980896 0.154567 1.74022e-19)
(0.990464 0.14121 -1.58926e-19)
(0.998231 0.128774 -1.47411e-19)
(1.0044 0.117078 2.70132e-19)
(1.00912 0.105962 1.26404e-19)
(1.01252 0.095288 -4.8858e-19)
(1.01472 0.0849532 2.3419e-19)
(1.01583 0.0749 0)
(1.01594 0.0651221 1.08506e-19)
(1.01517 0.0556534 -2.07699e-19)
(1.01364 0.0465232 0)
(1.01152 0.0376787 -9.48388e-20)
(1.00897 0.0290253 0)
(1.00538 0.0209671 0)
(0.998687 0.0150937 0)
(0.992028 0.0119969 0)
(0.768768 0.289619 -7.054e-20)
(0.823081 0.28389 -3.45286e-19)
(0.853019 0.257606 -9.94511e-20)
(0.880446 0.231424 3.34841e-19)
(0.903724 0.208836 -1.38867e-19)
(0.924109 0.189383 1.30882e-19)
(0.941558 0.17242 -1.06654e-19)
(0.956397 0.157312 2.94757e-19)
(0.968888 0.143611 0)
(0.979307 0.131017 3.23423e-19)
(0.987906 0.119314 0)
(0.994889 0.108322 -2.81298e-19)
(1.00042 0.0978831 2.624e-19)
(1.00463 0.0878632 -2.52637e-19)
(1.00763 0.0781641 -2.39205e-19)
(1.00954 0.0687363 1.59002e-21)
(1.01047 0.0595822 2.22293e-19)
(1.01053 0.0507403 0)
(1.00983 0.0422415 -2.05344e-19)
(1.00854 0.0340435 1.98855e-19)
(1.0068 0.0260646 0)
(1.00406 0.018596 -2.79929e-19)
(0.998588 0.0128117 3.54448e-19)
(0.993182 0.00948643 0)
(0.74983 0.274252 0)
(0.804873 0.270733 4.73161e-19)
(0.835125 0.243026 0)
(0.863781 0.216446 -3.3451e-19)
(0.888209 0.194168 0)
(0.909691 0.175346 -2.4767e-19)
(0.928192 0.159161 -2.23694e-19)
(0.944029 0.144878 -1.96116e-19)
(0.95745 0.131994 -1.7846e-19)
(0.96875 0.120198 -1.63684e-19)
(0.978195 0.109274 0)
(0.985996 0.0990402 -3.23816e-21)
(0.992325 0.0893411 -3.05068e-21)
(0.997319 0.0800448 1.26419e-19)
(1.0011 0.0710567 -2.47605e-19)
(1.00379 0.062333 -2.35873e-19)
(1.0055 0.0538814 2.28347e-19)
(1.00633 0.045742 -3.29595e-19)
(1.00642 0.037945 1.05003e-19)
(1.0059 0.0304573 -1.02982e-19)
(1.0049 0.0232108 1.9672e-19)
(1.00294 0.0164042 -3.80969e-19)
(0.998616 0.0108521 0)
(0.994301 0.00733014 -3.95673e-19)
(0.727525 0.259112 0)
(0.784235 0.25774 -5.89043e-19)
(0.815936 0.227862 3.06764e-21)
(0.846599 0.200643 8.78732e-20)
(0.872666 0.178637 2.98588e-19)
(0.895561 0.160465 -1.25933e-19)
(0.915241 0.145081 2.21351e-19)
(0.932168 0.131668 -3.07562e-19)
(0.94659 0.119648 0)
(0.958807 0.108707 1.6743e-19)
(0.969112 0.0986214 -1.58485e-19)
(0.97773 0.0892125 2.91379e-19)
(0.984844 0.0803246 -2.36986e-21)
(0.9906 0.0718277 2.61857e-19)
(0.99513 0.06363 -1.26725e-19)
(0.998554 0.0556906 0)
(1.00099 0.0480193 0)
(1.00255 0.0406553 -2.22864e-21)
(1.00336 0.0336269 2.76941e-22)
(1.00356 0.0269108 6.25485e-19)
(1.00324 0.0204573 -1.01731e-19)
(1.002 0.0144065 -4.49506e-23)
(0.998811 0.00930283 -2.83135e-19)
(0.99531 0.00545637 1.68778e-19)
(0.699952 0.244281 -6.99125e-20)
(0.760502 0.244153 -1.84298e-19)
(0.795044 0.211476 0)
(0.828767 0.183529 -8.66084e-20)
(0.857045 0.161915 -2.21389e-19)
(0.881716 0.144525 0)
(0.902777 0.130049 3.41329e-19)
(0.920865 0.117573 2.03939e-19)
(0.936348 0.106497 9.28923e-20)
(0.949518 0.0964886 -2.58177e-19)
(0.960694 0.0873207 1.61322e-19)
(0.970123 0.0788144 2.18048e-21)
(0.978003 0.0708168 1.42409e-19)
(0.984493 0.0632008 0)
(0.989733 0.0558764 0)
(0.993847 0.0488034 0)
(0.996957 0.04199 0)
(0.999177 0.0354707 -1.151e-19)
(1.00063 0.0292699 1.11844e-19)
(1.00145 0.0233699 -1.05361e-19)
(1.00172 0.0177306 1.01635e-19)
(1.00116 0.012442 1.50742e-19)
(0.999057 0.00787019 -9.69083e-20)
(0.996425 0.00396923 1.29941e-19)
(0.666395 0.233222 -2.85408e-19)
(0.732693 0.227832 2.43417e-19)
(0.77198 0.192668 -2.14495e-19)
(0.810262 0.164445 1.82373e-19)
(0.841433 0.143625 0)
(0.868225 0.127286 0)
(0.890892 0.113908 -1.15476e-19)
(0.910241 0.102499 1.06339e-19)
(0.92681 0.0924696 -1.93087e-19)
(0.940952 0.0834923 0)
(0.952999 0.0753351 -1.62734e-19)
(0.963224 0.0678201 7.68225e-20)
(0.971844 0.0607986 -1.43114e-19)
(0.979033 0.0541479 7.02783e-20)
(0.984939 0.0477803 1.31596e-19)
(0.989693 0.0416544 0)
(0.993419 0.0357731 0)
(0.996233 0.030163 -1.16281e-19)
(0.998256 0.024842 5.59971e-20)
(0.999619 0.0197939 5.44251e-20)
(1.0004 0.01498 -5.24971e-20)
(1.00043 0.010438 -1.00825e-19)
(0.999246 0.00639531 1.95731e-19)
(0.997566 0.00288954 -2.19793e-19)
(0.622269 0.231468 2.53064e-19)
(0.698887 0.204282 0)
(0.74697 0.169686 2.66214e-19)
(0.791462 0.142679 -2.28523e-19)
(0.826135 0.123393 0)
(0.855305 0.108522 0)
(0.879724 0.0965084 1.78755e-19)
(0.900435 0.0863611 -2.6713e-19)
(0.918112 0.0775164 1.94562e-19)
(0.93321 0.0696836 0)
(0.946108 0.0626386 1.63923e-19)
(0.957099 0.0562095 -7.79544e-20)
(0.966421 0.0502532 7.33892e-20)
(0.974263 0.0446529 -2.07206e-19)
(0.980784 0.039324 1.33501e-19)
(0.986121 0.0342222 6.41497e-20)
(0.990401 0.0293427 6.07454e-20)
(0.993742 0.0247021 -5.91059e-20)
(0.996266 0.0203115 -6.60234e-22)
(0.998096 0.0161567 -1.09569e-19)
(0.999315 0.0122041 1.05669e-19)
(0.999832 0.00845877 5.07814e-20)
(0.999403 0.0050479 4.97558e-20)
(0.998514 0.00204455 0)
(0.0384711 -0.0586204 -1.09003e-18)
(0.195384 -0.112543 0)
(0.364759 -0.160208 -5.93518e-19)
(0.452517 -0.178872 -1.78191e-19)
(0.455993 -0.175698 -5.08687e-20)
(0.350982 -0.10474 -4.01731e-19)
(0.0863263 -0.0901552 0)
(0.260326 -0.163806 1.8558e-19)
(0.385727 -0.195366 0)
(0.439648 -0.198854 -1.89023e-19)
(0.447257 -0.192555 -2.32963e-20)
(0.383378 -0.120454 0)
(0.115232 -0.118354 -3.94397e-21)
(0.277414 -0.194376 -1.69822e-19)
(0.375631 -0.214816 -1.61644e-20)
(0.421006 -0.208932 6.53266e-21)
(0.431392 -0.186747 -2.76349e-20)
(0.409954 -0.10811 9.52548e-21)
(0.138843 -0.148374 0)
(0.281626 -0.219818 0)
(0.362523 -0.233033 1.52132e-20)
(0.405439 -0.21939 0)
(0.419551 -0.188524 1.04092e-20)
(0.422567 -0.113466 -6.94619e-20)
(0.157926 -0.177354 -4.76909e-19)
(0.282216 -0.242051 2.74989e-19)
(0.350873 -0.250691 -1.40158e-20)
(0.391943 -0.232234 4.62621e-20)
(0.411989 -0.197151 -1.74436e-19)
(0.430052 -0.129254 6.67251e-20)
(0.173157 -0.203625 4.72951e-19)
(0.281332 -0.261115 -2.87505e-19)
(0.340325 -0.267661 0)
(0.380434 -0.247155 -3.50606e-19)
(0.406779 -0.211179 1.48925e-19)
(0.435494 -0.15112 0)
(0.185347 -0.227066 -9.95027e-19)
(0.2792 -0.277482 5.65763e-19)
(0.330543 -0.284141 -4.15025e-19)
(0.370399 -0.264038 2.95786e-19)
(0.402546 -0.229638 -2.47462e-19)
(0.439285 -0.177407 0)
(0.195131 -0.247571 9.60654e-19)
(0.275785 -0.291738 -1.58743e-18)
(0.321083 -0.300368 -3.97821e-19)
(0.361213 -0.282774 -7.29587e-19)
(0.398495 -0.251751 3.45967e-19)
(0.441627 -0.20695 0)
(0.202831 -0.264866 0)
(0.270944 -0.304352 2.05782e-18)
(0.311497 -0.316524 7.27017e-19)
(0.35228 -0.303198 4.26119e-20)
(0.394118 -0.276947 5.33648e-19)
(0.442619 -0.239175 0)
(0.208583 -0.278726 0)
(0.264495 -0.315647 -1.0082e-18)
(0.301377 -0.332728 -7.53286e-19)
(0.343067 -0.325132 1.15728e-18)
(0.389014 -0.304802 -4.58996e-19)
(0.442328 -0.273843 0)
(0.21213 -0.288989 1.885e-18)
(0.256331 -0.325857 -9.32283e-19)
(0.290368 -0.349041 6.94095e-19)
(0.333106 -0.348383 -6.06039e-19)
(0.38286 -0.335011 -1.26221e-19)
(0.440792 -0.310904 -3.31073e-19)
(0.213015 -0.295636 -1.88339e-18)
(0.246403 -0.335138 9.88252e-19)
(0.278162 -0.365464 0)
(0.321988 -0.372769 -5.94873e-19)
(0.37537 -0.367354 5.03362e-19)
(0.437977 -0.350385 4.42139e-19)
(0.210778 -0.298805 2.93834e-20)
(0.234688 -0.343576 0)
(0.264518 -0.381915 7.25771e-19)
(0.309344 -0.398112 1.18019e-18)
(0.366247 -0.401629 -5.00241e-19)
(0.433797 -0.392382 0)
(0.205044 -0.298742 -1.88471e-18)
(0.221141 -0.351177 0)
(0.249267 -0.398258 -1.60172e-22)
(0.294839 -0.424159 -5.87809e-19)
(0.355186 -0.437637 0)
(0.428112 -0.437009 0)
(0.195603 -0.295706 2.4827e-20)
(0.205745 -0.357866 0)
(0.232295 -0.414266 -6.41378e-19)
(0.278192 -0.450554 -7.46113e-20)
(0.341853 -0.475119 0)
(0.42073 -0.484379 0)
(0.182371 -0.289934 3.76639e-18)
(0.188615 -0.363453 1.05292e-18)
(0.213573 -0.429552 0)
(0.259182 -0.476791 -5.88371e-19)
(0.325878 -0.513671 0)
(0.411345 -0.534457 0)
(0.165472 -0.281573 -1.93607e-18)
(0.169981 -0.367532 -1.08371e-18)
(0.193179 -0.443524 -6.65611e-19)
(0.23764 -0.502136 5.19566e-19)
(0.306862 -0.552626 1.17308e-19)
(0.399538 -0.586995 -1.05421e-19)
(0.145374 -0.270528 0)
(0.150201 -0.3694 6.91764e-20)
(0.171312 -0.455286 1.50936e-18)
(0.213457 -0.525514 0)
(0.28434 -0.590946 -3.68301e-19)
(0.384754 -0.6415 2.90057e-19)
(0.123018 -0.256103 -6.07454e-20)
(0.129664 -0.367939 -1.21242e-18)
(0.148274 -0.463484 5.35603e-20)
(0.18649 -0.54548 6.22107e-19)
(0.257752 -0.627079 9.86295e-19)
(0.366092 -0.697054 -6.97344e-19)
(0.0998157 -0.236667 -6.13525e-20)
(0.108729 -0.361375 3.50513e-20)
(0.124413 -0.466192 -1.69097e-18)
(0.15653 -0.560245 -6.46452e-19)
(0.226511 -0.658583 -4.06049e-21)
(0.342037 -0.752091 3.98612e-19)
(0.0772513 -0.209699 3.10063e-20)
(0.0877827 -0.347155 -3.23956e-21)
(0.100111 -0.460964 8.95283e-19)
(0.123453 -0.567844 -6.87845e-19)
(0.190023 -0.681956 -1.05021e-18)
(0.309887 -0.804801 0)
(0.0571847 -0.173776 0)
(0.067745 -0.32243 1.37071e-18)
(0.0762446 -0.445098 -4.88401e-19)
(0.0878907 -0.566666 3.6756e-19)
(0.148191 -0.692096 5.62537e-19)
(0.264335 -0.855377 2.03833e-19)
(0.0432029 -0.130365 -1.64406e-20)
(0.0507004 -0.282886 6.99247e-19)
(0.055315 -0.414104 5.73856e-19)
(0.0518347 -0.554712 4.14883e-19)
(0.100858 -0.677302 0)
(0.192299 -0.917216 -4.4865e-19)
(0.0375629 -0.0675646 0)
(0.0356945 -0.199115 -7.48326e-19)
(0.0318945 -0.338071 -6.37198e-19)
(-0.00324375 -0.513807 -4.64838e-19)
(0.0685701 -0.602611 -3.53833e-19)
(0.05311 -1.05314 3.54978e-20)
(0.509917 0.192863 1.25496e-19)
(0.657938 0.170703 1.70541e-21)
(0.722337 0.141257 1.9369e-19)
(0.77343 0.117741 -4.78069e-20)
(0.81173 0.100972 0)
(0.843313 0.0880863 1.36856e-19)
(0.869504 0.077754 -1.8163e-19)
(0.891595 0.0690949 1.07494e-19)
(0.91039 0.0616115 0)
(0.926418 0.0550514 0)
(0.940121 0.0492258 -4.20049e-20)
(0.951829 0.0439769 -3.92854e-20)
(0.961798 0.0391735 -1.83888e-19)
(0.970234 0.0347065 7.06294e-20)
(0.977305 0.0304946 0)
(0.983158 0.0264904 -1.28518e-19)
(0.987919 0.0226793 1.24038e-19)
(0.991711 0.0190665 5.97935e-20)
(0.994657 0.0156558 5.67744e-20)
(0.996873 0.0124353 -1.6659e-19)
(0.998445 0.00937794 5.38484e-20)
(0.999358 0.00647395 0)
(0.999519 0.00378831 -4.97633e-20)
(0.999244 0.00139868 0)
(0.484601 0.122809 -1.61307e-19)
(0.629349 0.126787 6.73383e-20)
(0.701617 0.10781 -1.10347e-19)
(0.757471 0.0897777 2.46087e-20)
(0.798907 0.0764027 6.01828e-20)
(0.832673 0.0659862 -1.04851e-19)
(0.860514 0.0576433 0)
(0.88391 0.0506964 -2.70094e-20)
(0.903774 0.0447491 2.52153e-20)
(0.92069 0.0396045 0)
(0.935143 0.0351107 8.38579e-20)
(0.9475 0.0311364 -5.3391e-22)
(0.958044 0.0275682 3.70715e-20)
(0.967 0.0243107 -3.52351e-20)
(0.974546 0.0212883 3.40345e-20)
(0.980833 0.0184501 0)
(0.985994 0.0157705 6.2405e-20)
(0.990153 0.0132419 -3.02609e-22)
(0.993434 0.0108607 -7.26432e-20)
(0.99595 0.00861663 -5.57809e-20)
(0.997793 0.00649068 4.04277e-20)
(0.998999 0.00447093 0)
(0.999579 0.00258617 0)
(0.999729 0.000891164 0)
(0.485327 0.0628859 0)
(0.612501 0.080091 -5.79093e-20)
(0.686203 0.0714525 0)
(0.744451 0.0595429 -5.34295e-20)
(0.788197 0.0500019 0)
(0.823752 0.042381 -4.4231e-21)
(0.853021 0.0362718 0)
(0.877582 0.0312248 0)
(0.898412 0.0269677 -3.14333e-21)
(0.916133 0.0233702 -2.8794e-21)
(0.931262 0.0203194 -2.66373e-21)
(0.944194 0.0177123 -9.85791e-21)
(0.955233 0.015458 7.08938e-21)
(0.964621 0.013479 0)
(0.972552 0.01171 -1.69506e-20)
(0.979185 0.0100986 1.43633e-20)
(0.984654 0.00860835 0)
(0.989088 0.00721751 -1.89306e-21)
(0.99261 0.00591377 -1.83093e-21)
(0.995337 0.00468773 1.58105e-20)
(0.997363 0.0035295 2.53214e-20)
(0.998757 0.0024327 -1.4706e-20)
(0.999577 0.00140535 1.58024e-21)
(0.999952 0.000461497 -1.41563e-21)
(0.491829 0.0138123 0)
(0.602939 0.0352883 7.9076e-21)
(0.675662 0.0341712 -1.4557e-20)
(0.73462 0.0278684 5.97178e-21)
(0.779886 0.0221892 -1.0032e-20)
(0.816794 0.0175125 4.91074e-20)
(0.847235 0.0137932 0)
(0.872788 0.0107852 0)
(0.894451 0.00834496 3.14449e-21)
(0.912867 0.00640582 2.57296e-20)
(0.928575 0.0048955 -1.89441e-20)
(0.941988 0.00373974 0)
(0.953429 0.00287151 2.34354e-21)
(0.963157 0.00223306 0)
(0.971376 0.00177236 -1.69777e-20)
(0.978253 0.00143975 1.84783e-20)
(0.983931 0.00118936 0)
(0.98854 0.000984633 1.70389e-20)
(0.992206 0.000803179 1.82195e-21)
(0.995048 0.000635342 -1.75516e-21)
(0.997168 0.000480444 -2.53886e-20)
(0.99864 0.00034079 2.77862e-20)
(0.999506 0.000207652 -1.57786e-21)
(0.999904 4.64334e-05 -2.12421e-20)
(0.498343 -0.0302364 1.19444e-19)
(0.597857 -0.00708988 3.40796e-20)