/*--------------------------------*- C++ -*----------------------------------*\
  =========                 |
  \\      /  F ield         | OpenFOAM: The Open Source CFD Toolbox
   \\    /   O peration     | Website:  https://openfoam.org
    \\  /    A nd           | Version:  11
     \\/     M anipulation  |
\*---------------------------------------------------------------------------*/
FoamFile
{
    format      ascii;
    class       surfaceVectorField;
    location    "1.72";
    object      Uf;
}
// * * * * * * * * * * * * * * * * * * * * * * * * * * * * * * * * * * * * * //

dimensions      [0 1 -1 0 0 0 0];

internalField   nonuniform List<vector> 
5640
(
(-0.0709519 -0.0970539 -3.06493e-19)
(-0.071503 -0.087254 -6.34291e-21)
(-0.0669402 -0.0858206 -5.48616e-19)
(-0.0726661 -0.107646 -2.4873e-19)
(-0.0421526 0.0357819 -3.09526e-19)
(-0.0397479 -0.0252396 -2.26077e-19)
(0.0331353 0.203511 -1.07585e-19)
(0.00485292 0.160353 -1.64489e-19)
(0.147984 0.543581 -1.55122e-19)
(0.117004 0.34772 -4.86104e-20)
(0.284849 0.791218 -9.4178e-20)
(0.551765 0.995965 -1.0942e-19)
(-0.074596 -0.0999258 6.5404e-20)
(-0.086911 -0.0982532 -1.49497e-21)
(-0.04153 -0.0530779 7.23618e-20)
(-0.0579273 -0.0862907 6.41815e-21)
(0.0137337 0.0801823 -7.80209e-20)
(0.00589933 0.0154391 -6.14927e-21)
(0.104759 0.278491 -9.14283e-20)
(0.0825498 0.194618 -7.82913e-20)
(0.267776 0.518619 -9.32895e-21)
(0.231654 0.395715 -1.88811e-20)
(0.433357 0.683973 3.26856e-21)
(0.630036 0.816289 -4.1733e-22)
(-0.0722694 -0.0883012 -6.08064e-20)
(-0.0980399 -0.0963178 -1.49497e-21)
(-0.0122955 -0.0233031 -7.1353e-20)
(-0.0408624 -0.0634538 -6.27934e-20)
(0.072227 0.111685 -3.98249e-21)
(0.0479436 0.0452265 -3.26061e-22)
(0.198316 0.305364 -6.97564e-21)
(0.154198 0.21538 2.45755e-21)
(0.385566 0.520031 -8.32005e-21)
(0.325991 0.412997 -5.95781e-21)
(0.540369 0.637453 -2.032e-20)
(0.68145 0.737084 3.81173e-21)
(-0.0693273 -0.0756105 0)
(-0.106689 -0.0910673 -1.79313e-19)
(0.0156667 7.67336e-05 5.58586e-21)
(-0.0240643 -0.0440625 1.01973e-19)
(0.125806 0.134353 6.03122e-21)
(0.0859671 0.0677304 3.15766e-22)
(0.275354 0.317514 3.79265e-21)
(0.217617 0.229065 1.84606e-20)
(0.472939 0.510059 -1.90275e-20)
(0.404301 0.416352 -6.54331e-20)
(0.616193 0.598041 -6.95403e-22)
(0.726052 0.674968 -2.75086e-20)
(-0.0658532 -0.0638894 -9.34465e-20)
(-0.113468 -0.0853042 -9.11675e-22)
(0.0413155 0.0186356 1.0101e-19)
(-0.00861629 -0.0280776 -7.32333e-21)
(0.173124 0.15067 1.10637e-20)
(0.119452 0.0846913 -5.51835e-21)
(0.340143 0.322339 -4.83404e-20)
(0.272207 0.237919 -1.29134e-19)
(0.540782 0.493369 -4.80038e-20)
(0.467902 0.412839 -8.11246e-21)
(0.670144 0.561966 2.35583e-20)
(0.759763 0.621815 5.90087e-20)
(-0.0621528 -0.0540951 8.56205e-20)
(-0.118695 -0.0805245 -1.98628e-19)
(0.0638486 0.0330424 -1.14021e-19)
(0.00486212 -0.0154144 1.11193e-19)
(0.213533 0.162061 -1.42609e-19)
(0.148097 0.0969103 -1.72229e-19)
(0.393808 0.322774 -9.17367e-20)
(0.31795 0.24319 -1.79134e-20)
(0.592015 0.475518 6.32067e-20)
(0.518904 0.405572 -4.72106e-20)
(0.708127 0.530273 0)
(0.78303 0.577359 -1.36659e-19)
(-0.0586699 -0.046684 -1.911e-19)
(-0.122575 -0.0773936 -1.23249e-20)
(0.0828615 0.0436215 6.50465e-20)
(0.0160209 -0.00598038 -4.14926e-19)
(0.247188 0.169338 -5.22404e-20)
(0.171779 0.104982 -3.44055e-19)
(0.437214 0.320477 2.76549e-20)
(0.355289 0.245332 -2.03601e-19)
(0.630335 0.457608 -1.11549e-19)
(0.558915 0.396463 4.94833e-20)
(0.734303 0.502086 0)
(0.798466 0.539764 -5.86935e-21)
(-0.0556786 -0.0417585 -2.13128e-19)
(-0.12528 -0.0760871 3.64731e-19)
(0.098193 0.0506664 -8.26978e-19)
(0.0246608 0.000416587 2.08649e-19)
(0.274341 0.173027 -5e-19)
(0.190463 0.109397 1.52689e-19)
(0.471369 0.316186 -1.89733e-19)
(0.384868 0.244567 -3.14945e-19)
(0.658318 0.4402 1.62232e-19)
(0.58936 0.38633 4.13975e-19)
(0.751479 0.476802 0)
(0.807826 0.50743 9.2962e-20)
(-0.0533367 -0.0391788 7.95612e-19)
(-0.126973 -0.0764846 0)
(0.10979 0.0545187 1.19103e-18)
(0.0306529 0.00408598 4.21539e-19)
(0.295275 0.173559 3.52901e-19)
(0.204157 0.110572 -2.36603e-20)
(0.497353 0.310037 2.68032e-19)
(0.407216 0.241141 5.88973e-19)
(0.677933 0.423328 2.61667e-19)
(0.611622 0.375267 3.10148e-20)
(0.761709 0.453772 0)
(0.812318 0.479159 2.01471e-19)
(-0.0517812 -0.0386385 -3.98448e-19)
(-0.127823 -0.0782719 7.21876e-19)
(0.117605 0.0555753 -7.74267e-19)
(0.033894 0.00541875 -8.2009e-19)
(0.310196 0.171329 1.90677e-19)
(0.212866 0.108898 -1.8466e-20)
(0.515998 0.302102 3.6759e-19)
(0.422697 0.235276 2.63322e-19)
(0.690756 0.406658 -2.29677e-19)
(0.626785 0.363236 -2.87165e-19)
(0.76658 0.432223 -1.57202e-19)
(0.813031 0.453788 -2.0064e-19)
(-0.0511519 -0.0397249 3.89194e-19)
(-0.128013 -0.0810031 -6.54154e-22)
(0.121586 0.0542298 -9.8293e-20)
(0.0342803 0.00483739 3.0279e-20)
(0.319209 0.16667 4.46248e-20)
(0.216575 0.104752 3.298e-19)
(0.5279 0.292441 -3.76378e-19)
(0.431521 0.227115 -6.16754e-19)
(0.698147 0.389508 -2.15355e-19)
(0.63547 0.349988 2.00064e-19)
(0.767322 0.411633 5.4531e-20)
(0.810892 0.43029 -2.33144e-19)
(-0.0516089 -0.0419655 -3.61348e-19)
(-0.127746 -0.0841436 -7.11252e-19)
(0.121628 0.0508676 4.4572e-19)
(0.0317038 0.0027646 4.27527e-19)
(0.32264 0.159332 -2.99602e-19)
(0.215071 0.0983605 3.59606e-19)
(0.53365 0.28095 -6.3213e-20)
(0.433898 0.2167 3.16274e-19)
(0.700218 0.373017 4.75688e-19)
(0.638728 0.335557 -1.38071e-21)
(0.764675 0.391565 2.11526e-19)
(0.80589 0.408958 4.10011e-19)
(-0.053326 -0.0448649 1.19237e-20)
(-0.12724 -0.087112 -7.10201e-19)
(0.117593 0.0458328 3.44304e-19)
(0.0260637 -0.000408159 0)
(0.320147 0.14995 9.76926e-19)
(0.208269 0.0899865 3.5963e-19)
(0.533513 0.267616 3.87094e-19)
(0.429778 0.203873 3.10177e-19)
(0.698276 0.355627 -2.70539e-19)
(0.636716 0.319607 -2.64205e-19)
(0.759168 0.371667 0)
(0.799002 0.388272 -2.65839e-19)
(-0.0565136 -0.0479146 -7.63098e-19)
(-0.12671 -0.0893208 -7.0991e-19)
(0.10937 0.0394309 2.11461e-23)
(0.0172882 -0.00435283 0)
(0.311713 0.138394 -3.05459e-19)
(0.195992 0.0798221 -3.22601e-19)
(0.527542 0.252163 -3.25027e-19)
(0.418985 0.188465 -3.56199e-19)
(0.692386 0.33737 0)
(0.629524 0.301825 0)
(0.751171 0.351543 0)
(0.790305 0.368203 0)
(-0.0611455 -0.0507643 1.23818e-20)
(-0.126435 -0.0901894 1.3885e-18)
(0.0968252 0.031904 -3.08914e-19)
(0.00540706 -0.00877726 4.50375e-19)
(0.297128 0.12464 -3.70505e-19)
(0.178046 0.068032 -3.22644e-19)
(0.51561 0.234312 -4.1159e-20)
(0.401201 0.170241 -3.63961e-19)
(0.682646 0.317884 0)
(0.617036 0.281746 0)
(0.740903 0.330725 0)
(0.779932 0.348396 2.76767e-19)
(-0.0674692 -0.0528424 1.88042e-18)
(-0.126545 -0.0892708 6.55885e-19)
(0.0798937 0.0234815 4.6954e-19)
(-0.0094722 -0.0134578 -9.18698e-21)
(0.276128 0.10861 -3.12982e-19)
(0.154269 0.0547659 -3.31805e-19)
(0.497402 0.213665 -3.33007e-19)
(0.375945 0.148935 -3.8307e-20)
(0.669 0.296611 0)
(0.598787 0.258793 6.75801e-20)
(0.728471 0.3087 -5.68761e-20)
(0.767858 0.328473 -3.92948e-19)
(-0.0754236 -0.05406 -1.19504e-18)
(-0.127452 -0.0859807 -7.20503e-19)
(0.0585893 0.0143698 -7.96712e-19)
(-0.0270462 -0.0181678 -4.30056e-19)
(0.248386 0.0902558 -6.46319e-20)
(0.12459 0.0402072 4.14941e-19)
(0.472239 0.189781 3.59649e-19)
(0.342567 0.124336 2.85946e-19)
(0.651095 0.272941 7.31177e-21)
(0.573776 0.232319 -1.44467e-19)
(0.7138 0.284805 1.09954e-19)
(0.754026 0.308032 2.1387e-19)
(-0.0853159 -0.0539247 2.77207e-20)
(-0.129884 -0.0795784 -2.2944e-20)
(0.0330634 0.00473753 7.45969e-19)
(-0.0467531 -0.0228267 -4.66082e-19)
(0.21354 0.0696126 7.71997e-19)
(0.0891016 0.0246569 7.71237e-19)
(0.439188 0.162221 -2.06102e-19)
(0.300353 0.0962721 3.35127e-19)
(0.628131 0.246215 -6.17266e-20)
(0.540343 0.201608 3.52791e-19)
(0.696438 0.258086 -2.27353e-19)
(0.738313 0.286524 2.5056e-19)
(-0.0973941 -0.0527145 -4.90983e-19)
(-0.13457 -0.069585 -4.44315e-20)
(0.00376532 -0.00531004 -4.93501e-19)
(-0.0673999 -0.0275797 -4.81118e-19)
(0.171279 0.0468925 3.48864e-19)
(0.0482641 0.00858508 -7.73333e-19)
(0.39713 0.130654 8.94266e-19)
(0.248741 0.0646078 -3.97038e-21)
(0.598704 0.215786 1.93845e-19)
(0.495915 0.166006 5.65611e-19)
(0.675427 0.226968 -1.66531e-19)
(0.720501 0.263276 -4.9116e-19)
(-0.108905 -0.0471608 -8.38409e-21)
(-0.13567 -0.0591127 -1.20096e-20)
(-0.0280531 -0.0155358 -7.48418e-19)
(-0.086985 -0.0326481 1.57037e-20)
(0.121633 0.0224633 -1.15372e-18)
(0.00343984 -0.00740911 -3.91097e-19)
(0.344542 0.0947902 -3.49055e-19)
(0.187479 0.0295423 -6.83723e-19)
(0.560525 0.180719 2.21387e-19)
(0.4362 0.125201 -5.78635e-19)
(0.649249 0.188886 2.26371e-19)
(0.700037 0.237257 2.6399e-19)
(-0.115046 -0.0444238 1.02151e-20)
(-0.130105 -0.0499718 9.47792e-21)
(-0.0600737 -0.0253883 3.90842e-19)
(-0.103617 -0.0364483 5.25014e-19)
(0.0654395 -0.00292765 8.96114e-20)
(-0.0426957 -0.0224232 1.98948e-19)
(0.278596 0.0546083 -9.14876e-19)
(0.116629 -0.00746698 -1.64425e-19)
(0.509335 0.138033 -5.91502e-19)
(0.353138 0.0794785 -2.87711e-19)
(0.615542 0.140284 1.11961e-19)
(0.674577 0.205634 0)
(-0.118791 -0.0427456 4.94201e-19)
(-0.121169 -0.0401492 -5.67153e-21)
(-0.090147 -0.0334217 3.46626e-19)
(-0.116552 -0.0378644 7.84287e-19)
(0.00443772 -0.0274899 -4.47932e-20)
(-0.086107 -0.0351487 2.33146e-20)
(0.193709 0.0109595 4.6757e-19)
(0.036407 -0.0421397 3.57317e-19)
(0.436337 0.0787659 4.09837e-19)
(0.228472 0.0307988 2.93524e-19)
(0.572798 0.0755778 -5.18242e-20)
(0.63785 0.159336 1.01419e-19)
(-0.119516 -0.0385318 2.38839e-19)
(-0.096805 -0.0325216 -4.26765e-19)
(-0.115575 -0.0388228 4.92891e-19)
(-0.115803 -0.0389237 -2.44161e-20)
(-0.0590852 -0.0489765 4.13417e-19)
(-0.118324 -0.0442327 6.02585e-21)
(0.0771251 -0.03418 1.85447e-19)
(-0.0470897 -0.0657067 1.96534e-20)
(0.323014 0.00772944 -2.06727e-19)
(0.0420796 -0.0182597 -1.68976e-19)
(0.509951 -0.0235958 -9.15885e-21)
(0.601466 0.0997231 -3.65992e-19)
(-0.0934873 -0.0319716 -7.10238e-19)
(-0.119796 -0.0395966 -5.09299e-19)
(-0.106484 -0.0531914 -3.88198e-19)
(-0.0610506 -0.04849 -3.19949e-19)
(0.169758 0.000745579 -4.60358e-20)
(0.605402 0.0899668 3.15583e-19)
(1.12405 0.76095 3.00406e-21)
(0.976584 0.865455 -5.47324e-21)
(1.03023 0.818159 -1.03625e-19)
(1.32717 0.62418 -1.20497e-20)
(1.25301 0.699372 5.99199e-21)
(1.30264 0.684359 2.56328e-21)
(1.38956 0.505936 -1.90284e-20)
(1.34942 0.559259 -4.90465e-21)
(1.40712 0.546225 -6.1524e-20)
(1.39797 0.412972 -1.82859e-20)
(1.37564 0.456226 -9.37806e-21)
(1.42973 0.441542 3.28278e-20)
(1.38394 0.341791 -2.46874e-21)
(1.37017 0.377392 -3.74873e-21)
(1.41771 0.361862 -2.3575e-21)
(1.36305 0.287155 4.02398e-21)
(1.35364 0.316452 3.77651e-23)
(1.39443 0.300858 4.32768e-21)
(1.34157 0.244867 -3.64852e-21)
(1.33469 0.269309 -8.54186e-23)
(1.36938 0.254075 -2.289e-21)
(1.3215 0.211678 -2.3372e-21)
(1.31622 0.232368 -6.28942e-21)
(1.34583 0.217755 6.0951e-22)
(1.30318 0.185169 8.21376e-22)
(1.29901 0.202909 3.80352e-21)
(1.32457 0.189084 -2.76108e-21)
(1.28643 0.163596 -1.43891e-21)
(1.2831 0.178988 -5.88817e-22)
(1.3055 0.166044 -5.88817e-22)
(1.27094 0.145704 -5.65754e-21)
(1.26827 0.15921 9.16072e-21)
(1.28823 0.147177 3.60973e-21)
(1.25636 0.130589 6.96048e-21)
(1.25424 0.142561 -5.26016e-21)
(1.27235 0.131431 -4.8034e-21)
(1.24238 0.117595 3.60316e-21)
(1.24074 0.128305 1.66132e-20)
(1.25746 0.11804 3.9087e-21)
(1.22872 0.106244 -8.53889e-21)
(1.22751 0.115899 -1.37226e-20)
(1.24321 0.106453 -2.98453e-20)
(1.21509 0.0961951 8.81879e-21)
(1.21432 0.104948 4.97245e-21)
(1.22928 0.0962743 1.4163e-20)
(1.20123 0.0872078 -7.39941e-21)
(1.20093 0.0951632 8.8894e-21)
(1.21537 0.0872252 2.42276e-20)
(1.18686 0.0791299 8.44434e-21)
(1.18711 0.0863464 -6.57367e-21)
(1.20117 0.0791259 -2.28565e-20)
(1.17165 0.0718857 1.28285e-21)
(1.17257 0.0783836 2.54494e-20)
(1.18635 0.0718861 1.71338e-20)
(1.15521 0.0654711 -2.4516e-20)
(1.15702 0.071217 -3.61056e-20)
(1.17054 0.0654744 -2.44862e-20)
(1.13707 0.0599491 7.51676e-21)
(1.14006 0.0647402 -9.23192e-21)
(1.15324 0.0598173 7.51812e-21)
(1.11663 0.0554425 -9.06083e-21)
(1.12114 0.0588235 1.41028e-20)
(1.13385 0.0548225 2.1219e-20)
(1.09321 0.052122 -1.07789e-21)
(1.09977 0.054526 -1.67764e-20)
(1.11188 0.0516354 -2.40324e-20)
(1.06609 0.0502675 2.43735e-20)
(1.0759 0.0563931 2.42341e-20)
(1.08737 0.054848 1.61556e-20)
(1.049 0.0655402 0)
(1.0593 0.0645439 0)
(1.0916 0.724685 2.83401e-21)
(0.944199 0.789673 -5.00504e-22)
(1.27076 0.615303 5.99471e-21)
(1.20402 0.681467 3.19701e-21)
(1.33433 0.51099 4.63153e-21)
(1.29457 0.556789 2.54756e-21)
(1.34712 0.422477 5.18084e-21)
(1.32217 0.460146 -1.47745e-21)
(1.33957 0.35312 -1.46716e-21)
(1.32312 0.384992 3.00528e-21)
(1.32519 0.299444 -4.70001e-21)
(1.31344 0.326111 -5.20898e-21)
(1.3093 0.257441 -2.64663e-21)
(1.30034 0.279904 0)
(1.29372 0.224055 -2.52999e-22)
(1.28664 0.243227 -2.68107e-21)
(1.27894 0.197066 2.50099e-21)
(1.27324 0.213634 1.99237e-21)
(1.26495 0.174862 1.00457e-20)
(1.26034 0.189342 -4.60004e-22)
(1.25159 0.156272 9.86286e-21)
(1.24786 0.169057 9.71039e-21)
(1.23865 0.140442 4.33198e-21)
(1.23567 0.151838 -1.97131e-21)
(1.22591 0.126744 -4.08482e-22)
(1.2236 0.136988 5.84687e-21)
(1.21317 0.114714 -3.61204e-22)
(1.21146 0.123992 -5.25433e-21)
(1.20022 0.10401 5.01194e-21)
(1.1991 0.112466 2.06484e-21)
(1.18687 0.0943819 9.82366e-21)
(1.18634 0.10212 2.39582e-21)
(1.17288 0.0856574 1.02067e-20)
(1.173 0.0927473 9.8987e-21)
(1.15801 0.0777343 -1.14003e-20)
(1.15886 0.0842109 -1.18452e-22)
(1.14194 0.0705777 -2.10008e-20)
(1.1437 0.0764273 -1.2261e-20)
(1.12427 0.0642171 -2.28169e-21)
(1.1272 0.0692716 -6.38201e-21)
(1.10444 0.0587326 6.5779e-21)
(1.10889 0.0625643 1.10207e-20)
(1.08193 0.0542365 0)
(1.08828 0.0571116 -2.73916e-21)
(1.05645 0.0509594 0)
(1.06526 0.0569946 3.20327e-22)
(1.04004 0.0663778 -3.36084e-22)
(1.05548 0.706757 -2.24031e-21)
(0.931117 0.737106 0)
(1.22132 0.60406 -2.3434e-21)
(1.15408 0.652338 -8.52037e-22)
(1.28105 0.506058 -3.6049e-21)
(1.24081 0.544564 -2.27692e-21)
(1.29783 0.424054 -3.73463e-21)
(1.27176 0.456593 -2.97126e-21)
(1.29676 0.358735 -5.64791e-22)
(1.2786 0.386693 -1.47229e-21)
(1.28845 0.307168 -5.81488e-22)
(1.27487 0.330943 7.29412e-21)
(1.27761 0.26618 0)
(1.26697 0.286476 0)
(1.26613 0.233182 -4.75361e-22)
(1.25758 0.250692 0)
(1.25464 0.206199 -9.41337e-22)
(1.24769 0.221467 -1.09621e-23)
(1.24327 0.183767 -9.01438e-22)
(1.23759 0.197208 4.0095e-21)
(1.23198 0.164809 -2.02289e-21)
(1.22736 0.176747 -3.75654e-21)
(1.22066 0.148536 -5.27867e-22)
(1.21696 0.159226 -1.59296e-21)
(1.2092 0.134363 1.09848e-21)
(1.20632 0.144004 1.49153e-21)
(1.19746 0.12185 -2.88336e-21)
(1.19533 0.130605 0)
(1.18529 0.110668 -5.52158e-22)
(1.18389 0.118665 -6.13732e-21)
(1.17254 0.100566 2.41399e-21)
(1.17186 0.107909 5.8394e-21)
(1.15904 0.0913609 -3.46266e-22)
(1.15911 0.0981294 0)
(1.14461 0.0829287 -8.31657e-22)
(1.14549 0.089181 3.0424e-21)
(1.12899 0.0751998 2.34769e-21)
(1.13082 0.0809692 -1.43689e-22)
(1.11185 0.0681627 7.38486e-21)
(1.11486 0.0733804 2.51895e-21)
(1.09268 0.0618452 1.65054e-21)
(1.09723 0.0661988 -5.3235e-22)
(1.07113 0.0562198 -2.43706e-21)
(1.07729 0.0596832 2.83964e-21)
(1.04773 0.051227 -1.19825e-23)
(1.05464 0.0562949 -7.72183e-23)
(1.03274 0.0671468 -3.082e-21)
(1.02758 0.666217 1.44159e-21)
(0.922196 0.679351 3.78206e-20)
(1.17227 0.58046 1.43369e-21)
(1.10999 0.615288 1.01644e-20)
(1.23115 0.49413 -1.63077e-21)
(1.19235 0.526072 3.02763e-21)
(1.25233 0.420078 -7.34401e-22)
(1.22585 0.44792 -2.38736e-20)
(1.25657 0.359485 6.22389e-21)
(1.23725 0.383804 -1.47229e-21)
(1.25333 0.310717 7.98658e-21)
(1.23846 0.331743 9.8961e-21)
(1.24693 0.271382 0)
(1.23506 0.289566 1.18038e-20)
(1.23914 0.239293 4.69482e-22)
(1.22948 0.255138 -4.50544e-21)
(1.23065 0.212729 4.90432e-21)
(1.22271 0.226656 4.65235e-22)
(1.22171 0.190395 1.24813e-21)
(1.21517 0.202738 2.28586e-20)
(1.21239 0.171335 -3.34442e-21)
(1.20704 0.182355 -1.19098e-20)
(1.20267 0.154836 4.00994e-22)
(1.19836 0.164739 8.17713e-21)
(1.19251 0.140366 4.083e-22)
(1.18914 0.149315 4.6649e-22)
(1.18183 0.127522 -3.20278e-21)
(1.17934 0.135647 -2.21595e-20)
(1.17054 0.115995 1.61935e-22)
(1.16889 0.123403 1.08448e-20)
(1.15852 0.105552 3.47039e-21)
(1.15771 0.112326 1.70709e-20)
(1.14566 0.0960148 3.36645e-21)
(1.1457 0.102221 -1.3051e-20)
(1.13181 0.0872544 3.75216e-21)
(1.13276 0.0929504 -1.23642e-20)
(1.11678 0.0791819 1.23197e-23)
(1.11874 0.0844242 1.25886e-20)
(1.10033 0.0717482 -5.37796e-21)
(1.10347 0.076528 -3.32082e-22)
(1.08211 0.0649951 8.42771e-22)
(1.08674 0.0689612 6.49175e-21)
(1.06176 0.0592037 5.27241e-21)
(1.06836 0.0616823 1.74186e-20)
(1.03912 0.054645 -2.91694e-21)
(1.04784 0.057101 1.19557e-21)
(1.02121 0.0702953 -2.61399e-20)
(1.0039 0.622164 4.50866e-20)
(0.915166 0.626333 -1.28507e-19)
(1.1301 0.553742 1.40628e-20)
(1.07328 0.578622 1.86405e-20)
(1.18686 0.478684 -1.78825e-20)
(1.14964 0.504695 5.30456e-21)
(1.2107 0.41216 -2.49861e-20)
(1.18446 0.435801 -5.10793e-20)
(1.21912 0.356562 1.9628e-21)
(1.19934 0.377569 0)
(1.22018 0.310992 1.35652e-20)
(1.20454 0.329415 -1.2257e-20)
(1.2176 0.273656 7.56044e-21)
(1.20489 0.289788 2.53377e-20)
(1.21305 0.242776 -4.62688e-21)
(1.20256 0.256975 -5.44662e-20)
(1.20725 0.216894 1.81383e-20)
(1.19854 0.229479 -3.49477e-20)
(1.20053 0.194888 1.00861e-20)
(1.19331 0.206118 2.87574e-20)
(1.19305 0.175919 -5.8539e-22)
(1.1871 0.185997 -2.88808e-20)
(1.18488 0.159353 8.32011e-21)
(1.18005 0.168442 -9.88175e-21)
(1.17603 0.144711 -2.18983e-20)
(1.17222 0.152937 -7.63578e-22)
(1.16647 0.131627 -8.39462e-21)
(1.16362 0.139091 -3.90645e-20)
(1.15615 0.11982 2.77046e-20)
(1.15422 0.126596 1.40745e-20)
(1.145 0.109074 7.80389e-22)
(1.14399 0.115217 2.89978e-20)
(1.13294 0.0992251 -2.87675e-20)
(1.13286 0.104768 -1.3051e-20)
(1.11986 0.0901505 -3.72953e-21)
(1.12075 0.0951196 -1.54025e-21)
(1.10566 0.0817608 1.23304e-20)
(1.10757 0.0861797 -1.45505e-21)
(1.09018 0.074007 1.14939e-20)
(1.09319 0.0777765 0)
(1.07328 0.0669054 2.21155e-20)
(1.07757 0.0694895 -1.2153e-21)
(1.05446 0.0604599 1.35522e-20)
(1.06052 0.0615423 -1.30791e-20)
(1.03233 0.0542717 1.71265e-20)
(1.04054 0.0582731 2.58548e-20)
(1.01388 0.0712297 -5.07785e-20)
(0.983746 0.580989 -1.5888e-19)
(0.908534 0.580776 -1.67447e-19)
(1.09337 0.525807 1.01615e-20)
(1.04255 0.544042 -9.10422e-20)
(1.14736 0.460988 -2.61904e-20)
(1.11238 0.482154 1.63035e-20)
(1.17307 0.401593 -2.71329e-20)
(1.14745 0.421566 1.96204e-20)
(1.18473 0.350869 -1.40541e-20)
(1.16481 0.368924 -1.99816e-20)
(1.18923 0.308577 -1.12405e-21)
(1.17314 0.324624 3.7531e-21)
(1.18984 0.273408 -3.55404e-20)
(1.17655 0.287625 2.8707e-20)
(1.18806 0.243929 -8.5118e-20)
(1.17698 0.256565 -1.08768e-20)
(1.18462 0.218915 -2.51063e-20)
(1.17535 0.230206 -6.27333e-20)
(1.17991 0.197406 -9.59062e-21)
(1.17215 0.207549 1.03725e-20)
(1.17414 0.178672 -3.83636e-20)
(1.1677 0.187826 -2.13903e-22)
(1.16744 0.162155 -1.90619e-20)
(1.16218 0.170447 1.64033e-21)
(1.15987 0.147427 -1.75891e-20)
(1.15568 0.154956 -1.71737e-21)
(1.15144 0.134154 -1.7046e-20)
(1.14826 0.140998 -1.83893e-20)
(1.14214 0.122075 1.52492e-20)
(1.13993 0.128291 -1.73436e-20)
(1.13193 0.110985 1.54878e-20)
(1.13067 0.11661 1.53874e-20)
(1.12076 0.100721 1.40928e-20)
(1.12046 0.105781 -4.64394e-20)
(1.10855 0.0911532 6.85867e-22)
(1.10923 0.0956743 -2.93509e-20)
(1.09522 0.082179 -1.37951e-20)
(1.09691 0.0861852 2.83816e-20)
(1.08064 0.0737202 -1.27014e-20)
(1.08344 0.0770837 2.7304e-20)
(1.06464 0.0656913 -3.76437e-20)
(1.06879 0.0678994 -2.66456e-20)
(1.04667 0.0578788 -5.89673e-21)
(1.05256 0.0592194 2.85632e-20)
(1.02596 0.0500942 -2.61287e-21)
(1.0328 0.056507 -2.77401e-20)
(1.00825 0.0667874 -2.82572e-20)
(0.966167 0.544026 -1.05782e-19)
(0.901582 0.541925 1.06878e-19)
(1.06183 0.498554 -8.91288e-20)
(1.01634 0.512261 -1.05676e-19)
(1.11256 0.442331 6.1682e-20)
(1.07984 0.459598 -1.57816e-20)
(1.13917 0.389283 2.705e-20)
(1.1144 0.406119 1.00607e-19)
(1.1532 0.343112 -2.79693e-21)
(1.13344 0.358588 -4.3442e-20)
(1.16045 0.304023 3.32368e-20)
(1.14418 0.317943 -2.24663e-20)
(1.16369 0.271065 5.41345e-20)
(1.15008 0.283526 4.84792e-20)
(1.16427 0.243077 1.23478e-20)
(1.1528 0.254254 8.60099e-21)
(1.16289 0.21904 -2.80548e-20)
(1.15321 0.229108 -1.85313e-21)
(1.15997 0.19814 1.99053e-20)
(1.15182 0.207248 0)
(1.15577 0.179747 3.98184e-20)
(1.14896 0.188018 2.01151e-20)
(1.15045 0.163373 1.90581e-20)
(1.14484 0.170907 6.22544e-20)
(1.14412 0.148634 -2.29624e-21)
(1.1396 0.15551 -8.10201e-20)
(1.1368 0.135226 -1.86596e-20)
(1.13332 0.141508 1.69144e-20)
(1.12852 0.122906 -1.74967e-20)
(1.12604 0.128641 7.3651e-23)
(1.11926 0.111479 -4.60904e-20)
(1.11775 0.116699 5.07769e-20)
(1.10899 0.100786 -9.00434e-20)
(1.10846 0.105515 -3.06388e-20)
(1.09766 0.0906965 -2.20036e-21)
(1.09812 0.0949679 -5.98738e-20)
(1.0852 0.0811044 6.95337e-20)
(1.08668 0.0849497 -1.84835e-20)
(1.07151 0.0719206 1.25059e-20)
(1.07411 0.0752085 2.77219e-20)
(1.05641 0.0630474 3.93279e-20)
(1.06042 0.0652892 -1.37311e-20)
(1.03949 0.0543477 1.68986e-20)
(1.04511 0.0560268 9.45319e-20)
(1.02073 0.0459456 -5.30268e-20)
(1.02603 0.0532791 -5.20744e-20)
(1.00326 0.0613389 1.25754e-20)
(0.950321 0.511067 1.07861e-19)
(0.894021 0.50837 3.53113e-19)
(1.03436 0.4726 -3.8004e-20)
(0.993509 0.48322 8.27209e-20)
(1.08171 0.423354 1.96781e-20)
(1.05119 0.437592 -6.66683e-20)
(1.10863 0.375871 3.29318e-20)
(1.08483 0.390083 1.13683e-19)
(1.12438 0.333851 -6.36919e-20)
(1.10495 0.347099 -9.65777e-20)
(1.13378 0.297785 -8.21151e-21)
(1.11751 0.309823 4.27498e-20)
(1.13918 0.266986 3.7617e-21)
(1.1254 0.277866 3.33061e-20)
(1.14174 0.240511 -5.31742e-21)
(1.13003 0.250351 -9.80063e-20)
(1.14214 0.217508 2.62106e-20)
(1.13218 0.226439 5.49299e-20)
(1.14082 0.197291 0)
(1.13237 0.205428 -2.70092e-20)
(1.13805 0.179319 4.21375e-20)
(1.13094 0.186758 0)
(1.13402 0.163165 -3.64289e-20)
(1.12812 0.169986 4.25552e-20)
(1.12885 0.148488 -6.26718e-20)
(1.12407 0.154757 -8.01672e-20)
(1.1226 0.135012 3.58268e-20)
(1.11888 0.140782 -2.34128e-20)
(1.11532 0.122513 6.7994e-20)
(1.11261 0.127823 1.74521e-20)
(1.107 0.110807 6.69334e-20)
(1.10528 0.115687 1.30664e-20)
(1.09764 0.0997462 -2.18107e-22)
(1.0969 0.10422 1.58395e-20)
(1.0872 0.0892095 -7.65969e-20)
(1.08746 0.0933115 -1.67517e-23)
(1.07564 0.0791004 -6.05941e-20)
(1.07692 0.0828619 -1.25307e-19)
(1.06288 0.0693388 3.33072e-21)
(1.0653 0.0726215 8.90514e-22)
(1.04876 0.0598449 4.64337e-20)
(1.05263 0.0621701 1.21254e-19)
(1.03299 0.0505293 4.12777e-20)
(1.03838 0.0524783 -3.70453e-21)
(1.01608 0.0416581 1.33054e-20)
(1.02015 0.0494191 -6.02786e-20)
(0.998992 0.0555727 7.12121e-20)
(0.93564 0.481506 3.33213e-19)
(0.885711 0.478828 -1.09312e-21)
(1.01014 0.448187 5.58858e-20)
(0.973204 0.45669 2.82e-19)
(1.05419 0.404695 2.22304e-20)
(1.02579 0.416477 -3.45832e-20)
(1.08103 0.361826 -1.16748e-20)
(1.05817 0.373851 -6.94651e-20)
(1.09801 0.323503 7.33913e-21)
(1.079 0.334848 -7.31173e-20)
(1.10909 0.290234 8.43213e-20)
(1.09294 0.300628 -9.13379e-21)
(1.11623 0.26149 -6.65741e-20)
(1.10241 0.270957 8.06203e-20)
(1.12046 0.236497 -3.95828e-20)
(1.10862 0.245123 7.11329e-20)
(1.12241 0.214546 2.69447e-21)
(1.11226 0.22243 2.90078e-20)
(1.1225 0.195055 -2.72909e-20)
(1.11384 0.202289 -2.70092e-20)
(1.12103 0.177563 0)
(1.1137 0.184223 -2.01402e-21)
(1.11819 0.161697 0)
(1.11207 0.167848 -4.91435e-20)
(1.11413 0.147153 -4.14434e-20)
(1.10913 0.152852 -4.70699e-20)
(1.10892 0.133681 -4.21592e-20)
(1.10498 0.138974 4.42259e-20)
(1.10261 0.121078 -3.74623e-20)
(1.0997 0.125999 0)
(1.09522 0.109174 -3.80485e-20)
(1.09331 0.11375 4.00356e-20)
(1.08677 0.0978351 1.61964e-20)
(1.08585 0.102087 -3.83663e-20)
(1.07725 0.0869545 -4.78154e-20)
(1.07732 0.0909155 1.63147e-20)
(1.06663 0.0764501 -6.4589e-20)
(1.06771 0.0801486 3.9666e-20)
(1.05485 0.0662566 1.23961e-19)
(1.05707 0.0695493 -1.00611e-19)
(1.0418 0.0563123 7.20734e-20)
(1.0455 0.0587366 2.18757e-19)
(1.0273 0.0465558 -1.04883e-19)
(1.03238 0.048748 -1.72107e-19)
(1.01216 0.0373909 -9.36275e-20)
(1.01513 0.045276 2.09658e-21)
(0.995562 0.0497714 8.88245e-20)
(0.921729 0.454825 -5.69523e-20)
(0.876662 0.45239 -3.00374e-19)
(0.988448 0.425306 1.98161e-19)
(0.95477 0.432392 -1.49225e-19)
(1.02958 0.386167 -1.26081e-19)
(1.00287 0.396305 3.85192e-20)
(1.05601 0.347446 -1.30619e-19)
(1.03411 0.35774 -9.81157e-20)
(1.07383 0.312407 -9.0895e-20)
(1.05528 0.322141 3.0384e-21)
(1.08621 0.281673 -1.40842e-20)
(1.07025 0.290639 1.44962e-19)
(1.09477 0.254841 2.18431e-19)
(1.08098 0.263055 -8.43672e-20)
(1.1004 0.231267 1.40207e-19)
(1.0885 0.238796 1.4285e-19)
(1.10369 0.210355 0)
(1.09344 0.217281 -6.80356e-20)
(1.10505 0.191613 -1.99301e-21)
(1.09624 0.19801 0)
(1.10476 0.174644 -5.06355e-20)
(1.09726 0.180575 -3.26853e-21)
(1.10303 0.159121 -9.62326e-20)
(1.09674 0.164644 2.89452e-21)
(1.10001 0.144775 3.78518e-20)
(1.09484 0.149938 4.95408e-20)
(1.0958 0.131381 8.68089e-20)
(1.09169 0.136225 -4.89931e-20)
(1.09044 0.118753 7.7241e-20)
(1.08736 0.123308 8.69174e-20)
(1.08398 0.106738 4.03742e-20)
(1.0819 0.111027 -8.68567e-20)
(1.07645 0.0952187 -3.86444e-20)
(1.07535 0.0992599 1.1994e-19)
(1.06785 0.0841041 1.03634e-19)
(1.06774 0.0879279 -1.14813e-19)
(1.0582 0.0733293 4.53904e-21)
(1.05909 0.0769595 1.04656e-19)
(1.04745 0.0628454 -4.82929e-21)
(1.04947 0.0661368 -1.03034e-19)
(1.03555 0.0526054 -3.37983e-20)
(1.03903 0.0551205 2.94489e-20)
(1.02237 0.0425696 -8.48762e-20)
(1.02711 0.044969 -1.27409e-19)
(1.00892 0.0332783 9.35504e-20)
(1.01092 0.0410591 -7.15008e-20)
(0.992953 0.0440847 1.59384e-19)
(0.908313 0.430537 -3.95364e-19)
(0.867019 0.428427 1.36139e-19)
(0.968704 0.403898 -3.11428e-19)
(0.937724 0.410042 -8.81927e-20)
(1.00719 0.368359 6.89242e-20)
(0.981998 0.377123 3.85192e-20)
(1.03317 0.333005 3.31917e-20)
(1.01211 0.341875 2.98473e-20)
(1.05157 0.300808 2.36439e-19)
(1.03346 0.309187 3.0384e-21)
(1.06495 0.272336 7.77887e-20)
(1.04921 0.280063 1.40559e-19)
(1.07468 0.247254 -1.62759e-19)
(1.06097 0.254359 -1.23123e-19)
(1.08151 0.225016 -6.28482e-20)
(1.0696 0.231556 -3.15389e-20)
(1.08597 0.205114 -6.87927e-20)
(1.07565 0.211162 7.09601e-20)
(1.08846 0.187126 -1.21228e-21)
(1.07955 0.192747 0)
(1.08925 0.170709 5.02342e-20)
(1.08164 0.175959 -5.92552e-20)
(1.08857 0.155577 1.48278e-19)
(1.08214 0.160507 5.1126e-20)
(1.08654 0.141488 -3.64425e-20)
(1.08123 0.146142 4.70691e-20)
(1.08328 0.12824 -5.0131e-20)
(1.07903 0.132655 -1.84377e-19)
(1.07885 0.115664 -7.58542e-20)
(1.07563 0.119868 4.01649e-20)
(1.07331 0.103626 -8.8779e-21)
(1.07108 0.107636 -1.22361e-19)
(1.0667 0.092022 4.5532e-20)
(1.06545 0.0958545 7.49491e-20)
(1.05905 0.0807817 -1.15692e-19)
(1.05877 0.0844625 4.3713e-21)
(1.05039 0.0698579 -1.63679e-21)
(1.05109 0.0734057 -3.97343e-20)
(1.04072 0.0592176 -6.96078e-20)
(1.04252 0.062489 -3.99388e-20)
(1.03 0.0488264 -6.85731e-20)
(1.03323 0.0514165 1.83775e-19)
(1.01816 0.0386631 -1.33079e-19)
(1.02253 0.0412309 -1.40664e-19)
(1.00633 0.0293927 -1.70341e-19)
(1.00749 0.0368922 -1.33876e-19)
(0.991113 0.0386126 1.2985e-19)
(0.895127 0.408237 4.4664e-19)
(0.856584 0.406289 -1.23556e-19)
(0.950455 0.383859 2.58101e-19)
(0.92169 0.38937 3.57417e-19)
(0.986644 0.351174 0)
(0.962718 0.358905 -4.41615e-20)
(1.01215 0.318634 0)
(0.991821 0.326342 0)
(1.03095 0.288873 -9.4932e-20)
(1.01325 0.29611 1.22216e-19)
(1.04514 0.262394 -5.66099e-20)
(1.02961 0.269047 8.83708e-21)
(1.05584 0.238897 6.74453e-21)
(1.04222 0.245016 1.34037e-19)
(1.0637 0.217903 1.01075e-19)
(1.0518 0.223547 4.36423e-20)
(1.06921 0.198969 1.40535e-19)
(1.05885 0.20421 -5.75705e-21)
(1.07272 0.181731 -5.74249e-20)
(1.06375 0.186629 -1.33686e-19)
(1.07452 0.165888 -5.95547e-20)
(1.06681 0.170496 -5.69513e-20)
(1.07481 0.151186 -5.00804e-20)
(1.06828 0.155551 1.70377e-19)
(1.07374 0.137408 -9.88693e-20)
(1.06831 0.141573 -1.04238e-19)
(1.0714 0.12437 -9.60195e-20)
(1.06703 0.12837 -2.98054e-24)
(1.06789 0.111921 -5.00332e-21)
(1.06453 0.11578 4.22312e-23)
(1.06326 0.099942 -4.00552e-20)
(1.06089 0.103676 -4.36296e-21)
(1.05757 0.088349 3.43032e-20)
(1.05617 0.0919682 -8.55082e-20)
(1.05088 0.0770891 8.07427e-20)
(1.05042 0.0806153 3.49296e-20)
(1.04323 0.0661339 -7.79137e-20)
(1.04372 0.0695802 4.18556e-20)
(1.03465 0.0554654 2.15225e-19)
(1.03621 0.0586938 -7.81961e-20)
(1.02512 0.0450585 1.04129e-19)
(1.02807 0.0477029 2.13184e-19)
(1.01461 0.0349068 -1.41502e-19)
(1.01858 0.0376029 -1.40664e-19)
(1.0043 0.0257815 1.49209e-21)
(1.00475 0.032863 1.46734e-19)
(0.989969 0.0334321 -3.13189e-19)
(0.882048 0.387533 -2.25417e-19)
(0.845513 0.385674 -3.18821e-19)
(0.933334 0.36506 6.36683e-20)
(0.90638 0.370156 1.0461e-19)
(0.967566 0.334623 -4.49827e-20)
(0.944648 0.341582 -4.41615e-20)
(0.99262 0.304399 1.20172e-19)
(0.972885 0.311162 -7.15073e-20)
(1.01172 0.276707 2.27707e-19)
(0.994357 0.282975 6.39913e-20)
(1.02659 0.251968 1.97741e-19)
(1.01124 0.257681 -5.2043e-20)
(1.03812 0.229895 1.71964e-19)
(1.02459 0.235131 1.4382e-19)
(1.0469 0.210051 -6.24396e-20)
(1.03502 0.214877 7.94706e-20)
(1.05335 0.19204 -2.78543e-19)
(1.04296 0.196533 -2.19592e-19)
(1.05781 0.175542 -1.34076e-19)
(1.04878 0.179761 4.01698e-21)
(1.06055 0.160288 1.70673e-19)
(1.05276 0.164285 -1.27431e-19)
(1.06177 0.14605 1.18789e-19)
(1.05514 0.149874 1.7309e-19)
(1.06161 0.132633 -6.25166e-21)
(1.05607 0.136323 -5.69627e-20)
(1.06018 0.119867 9.61329e-20)
(1.05569 0.123459 4.92784e-20)
(1.05756 0.107616 7.57324e-22)
(1.05408 0.111132 9.56155e-20)
(1.05383 0.0957788 -4.91541e-20)
(1.05132 0.0992314 4.83511e-20)
(1.04906 0.0842893 -8.57077e-20)
(1.04751 0.0876851 -9.63974e-20)
(1.04333 0.0731136 -3.99316e-21)
(1.0427 0.0764684 4.12676e-21)
(1.0367 0.0622409 4.23739e-20)
(1.03697 0.0655625 -4.00461e-21)
(1.02921 0.0516653 -7.90184e-20)
(1.03052 0.0548243 1.22481e-19)
(1.02086 0.0413677 -3.90492e-20)
(1.02351 0.0440415 -2.78648e-19)
(1.01165 0.0313519 1.4586e-19)
(1.01521 0.0341341 -4.2497e-20)
(1.00275 0.0224727 -2.52889e-20)
(1.00264 0.0290341 2.97759e-19)
(0.98943 0.028602 -1.63368e-19)
(0.868973 0.368181 0)
(0.833776 0.366302 3.31927e-19)
(0.917028 0.347367 0)
(0.891542 0.352218 -5.59184e-20)
(0.949612 0.318668 -7.01776e-20)
(0.927457 0.325065 1.82199e-19)
(0.974279 0.290319 -1.29519e-19)
(0.954998 0.296314 -2.2437e-19)