/*--------------------------------*- C++ -*----------------------------------*\
  =========                 |
  \\      /  F ield         | OpenFOAM: The Open Source CFD Toolbox
   \\    /   O peration     | Website:  https://openfoam.org
    \\  /    A nd           | Version:  11
     \\/     M anipulation  |
\*---------------------------------------------------------------------------*/
FoamFile
{
    format      ascii;
    class       volScalarField;
    location    "0.1";
    object      k;
}
// * * * * * * * * * * * * * * * * * * * * * * * * * * * * * * * * * * * * * //

dimensions      [0 2 -2 0 0 0 0];

internalField   nonuniform List<scalar> 
2880
(
0.00664495
0.0102674
0.0175255
0.0233844
0.0348452
0.117669
0.0202793
0.0279394
0.04132
0.0501319
0.0802965
0.151557
0.0241462
0.0375788
0.056008
0.0725683
0.117375
0.179521
0.0269007
0.0461308
0.0684864
0.0930223
0.138806
0.182873
0.0317312
0.0546345
0.0797644
0.10915
0.15104
0.179647
0.0350053
0.0625246
0.0894955
0.121044
0.155794
0.171927
0.0375787
0.0697548
0.0976605
0.129445
0.155692
0.164069
0.0397111
0.0763275
0.104525
0.134856
0.153709
0.156605
0.0414892
0.082206
0.110382
0.137778
0.150687
0.149646
0.0429509
0.0873049
0.115332
0.139107
0.1478
0.143281
0.0440474
0.0915538
0.119414
0.139726
0.145256
0.137741
0.0446935
0.0949149
0.122715
0.140206
0.143266
0.133204
0.0448404
0.0973316
0.125314
0.140858
0.14203
0.129826
0.0445575
0.0987732
0.127261
0.141985
0.14188
0.127816
0.0437825
0.0991834
0.128639
0.143702
0.142556
0.12764
0.0425624
0.098569
0.129405
0.145915
0.144666
0.129065
0.0409483
0.0969241
0.129417
0.148454
0.148474
0.133238
0.0389109
0.0942336
0.128486
0.150918
0.153824
0.140287
0.0363544
0.0904216
0.126336
0.152575
0.160277
0.149656
0.0331623
0.0852853
0.122503
0.152405
0.166403
0.159971
0.0292337
0.078376
0.116252
0.149279
0.169656
0.168793
0.0249526
0.0686923
0.10625
0.140651
0.166824
0.172448
0.0183794
0.0536206
0.0894852
0.122899
0.152796
0.163144
0.005749
0.0259484
0.0569772
0.0877723
0.119051
0.116967
0.269654
0.219355
0.131962
0.0816779
0.0546857
0.0400864
0.0311025
0.0249253
0.0203537
0.0168211
0.01403
0.0118073
0.0100328
0.00861701
0.00749175
0.00660367
0.00590963
0.0053729
0.0049605
0.00464187
0.00438949
0.00418304
0.00401054
0.00386685
0.242918
0.204209
0.126752
0.0787255
0.0528892
0.0389559
0.0304199
0.0245595
0.0202128
0.0168451
0.0141708
0.0120263
0.0102994
0.00890724
0.00778684
0.00688898
0.00617407
0.00560875
0.00516328
0.00480977
0.00452212
0.00428058
0.00407351
0.00389923
0.2204
0.184385
0.118856
0.0747658
0.0507156
0.0376682
0.0296713
0.0241632
0.0200595
0.0168663
0.0143156
0.0122549
0.0105804
0.00921619
0.00810428
0.00719958
0.00646584
0.00587279
0.00539367
0.00500312
0.00467657
0.0043951
0.00414816
0.00393729
0.20128
0.165902
0.109533
0.0701228
0.0482929
0.0362881
0.0288732
0.0237474
0.0199003
0.0168878
0.0144658
0.0124937
0.0108762
0.00954415
0.00844471
0.00753659
0.00678664
0.0061673
0.00565442
0.00522495
0.00485597
0.00453
0.00423888
0.00398328
0.184752
0.149497
0.100469
0.065561
0.0458961
0.0349214
0.0280847
0.0233336
0.0197462
0.0169162
0.0146254
0.0127449
0.0111882
0.0098922
0.00880914
0.00790125
0.00713813
0.00649454
0.00594852
0.00547907
0.00506485
0.00468989
0.00434837
0.00403862
0.170103
0.135198
0.0921179
0.0612898
0.0436343
0.0336272
0.0273394
0.0229442
0.0196105
0.0169601
0.0148001
0.0130125
0.0115188
0.0102621
0.00919901
0.00829495
0.00752193
0.00685664
0.00627885
0.00576914
0.00530734
0.00487865
0.00447932
0.00410424
0.156943
0.122874
0.0846641
0.0573989
0.0415557
0.0324385
0.0266609
0.0225979
0.019506
0.0170291
0.0149968
0.0133014
0.0118718
0.0106567
0.00961643
0.00871954
0.00794002
0.007256
0.00664845
0.00609889
0.00558766
0.00510036
0.00463497
0.00418156
0.145291
0.112353
0.0781497
0.0539232
0.0396782
0.0313698
0.0260632
0.0223087
0.0194435
0.0171321
0.0152229
0.0136177
0.012252
0.0110796
0.0100645
0.00917774
0.00839496
0.00769536
0.00706048
0.0064721
0.00591015
0.00535957
0.00481921
0.00427242
0.135133
0.103452
0.0725496
0.0508684
0.0380108
0.03043
0.0255555
0.0220876
0.0194303
0.017278
0.0154867
0.0139685
0.0126655
0.0115361
0.0105477
0.00967348
0.00889037
0.00817821
0.00751862
0.00689284
0.00627947
0.00566131
0.00503663
0.00437897
0.126433
0.0959975
0.0677998
0.0482264
0.0365586
0.0296267
0.0251464
0.0219496
0.0194834
0.0174785
0.0157982
0.0143628
0.0131204
0.0120336
0.0110727
0.0102128
0.00943182
0.00870982
0.00802798
0.00736636
0.00670121
0.00601162
0.00529279
0.00450352
0.11914
0.0898462
0.0638345
0.045987
0.035327
0.028967
0.0248455
0.0219017
0.0196133
0.0177453
0.0161689
0.0148117
0.0136273
0.0125821
0.0116492
0.0108052
0.0100286
0.00929939
0.00859768
0.00790167
0.00718447
0.00641981
0.00559615
0.00464881
0.11321
0.0848832
0.0606061
0.0441455
0.0343266
0.0284619
0.0246616
0.0219467
0.019831
0.0180914
0.0166122
0.0153285
0.0141993
0.013195
0.012291
0.0114652
0.0106966
0.00996421
0.00924647
0.00851873
0.00774996
0.00690701
0.00596619
0.00482158
0.10863
0.0810343
0.0580874
0.0427098
0.0335673
0.0281285
0.0246228
0.0221127
0.0201542
0.0185335
0.0171443
0.0159293
0.0148528
0.0138892
0.0130165
0.0122142
0.0114612
0.0107356
0.0100133
0.0092658
0.008456
0.00754038
0.00647174
0.00506306
0.105433
0.0782692
0.0562735
0.0416897
0.0330703
0.0279875
0.0247354
0.0224168
0.0206025
0.0190909
0.0177845
0.0166329
0.0156064
0.0146841
0.0138473
0.0130778
0.0123559
0.0116602
0.0109665
0.0102456
0.00945883
0.00854905
0.0074168
0.00572059
0.103797
0.0766294
0.0551932
0.0411256
0.0328707
0.0280667
0.0250318
0.0228834
0.0211997
0.0197868
0.0185548
0.0174604
0.0164802
0.0155988
0.0148027
0.0140779
0.013409
0.0127799
0.0121756
0.0115846
0.0110036
0.0104533
0.0100352
0.010019
0.103866
0.0762554
0.0549247
0.0410678
0.0330119
0.0284014
0.0255425
0.0235414
0.0219738
0.0206487
0.0194816
0.0184358
0.0174952
0.0166511
0.0158966
0.0152244
0.014627
0.0140978
0.0136347
0.0132434
0.012941
0.0127705
0.0128458
0.0132962
0.105857
0.0772052
0.0555836
0.0416142
0.033563
0.0290411
0.026307
0.0244268
0.0229595
0.0217101
0.0205967
0.0195886
0.0186767
0.0178604
0.0171414
0.0165214
0.0160031
0.0155915
0.0152971
0.0151361
0.0151296
0.0153017
0.0157315
0.0164334
0.11075
0.0800715
0.0574302
0.0429244
0.0346267
0.0300574
0.0273795
0.0255863
0.0242006
0.0230137
0.0219416
0.0209572
0.0200588
0.0192546
0.0185563
0.0179768
0.0175304
0.0172341
0.0171084
0.0171686
0.0174263
0.0179051
0.0186216
0.0195152
0.119202
0.0854611
0.060905
0.0452707
0.0363697
0.0315573
0.0288364
0.0270822
0.0257541
0.0246148
0.0235707
0.0225948
0.021691
0.0208768
0.0201754
0.0196122
0.0192149
0.0190127
0.0190318
0.0192709
0.019771
0.0205041
0.0214617
0.0225322
0.131433
0.0941357
0.0666935
0.0491144
0.0390733
0.0337121
0.0307916
0.0290017
0.0276965
0.0265871
0.0255579
0.0245754
0.023646
0.0227954
0.0220583
0.0214746
0.0210869
0.0209384
0.021047
0.0214304
0.0221211
0.0230655
0.0242348
0.0254805
0.145631
0.106148
0.0755069
0.0551232
0.0431909
0.0368028
0.033425
0.0314741
0.0301347
0.0290302
0.0280028
0.0270018
0.0260295
0.0251158
0.0243056
0.023653
0.0232174
0.0230591
0.0231959
0.0236525
0.0244706
0.0255774
0.0269297
0.028353
0.156592
0.119661
0.0874072
0.0640622
0.049426
0.0413002
0.0370361
0.0347034
0.0332262
0.0320822
0.0310401
0.0300136
0.0289895
0.0279941
0.0270766
0.026302
0.0257464
0.0254907
0.0255794
0.0260057
0.0268613
0.028061
0.0295549
0.0311551
0.155073
0.130276
0.100387
0.0758021
0.0584865
0.0479345
0.0421385
0.0390285
0.0372113
0.035937
0.0348475
0.0337904
0.0327184
0.0316405
0.0305992
0.029661
0.0289121
0.0284523
0.0283826
0.0286702
0.0294111
0.0305994
0.0321642
0.0339291
0.136141
0.128835
0.109676
0.0876636
0.0695362
0.0568463
0.0491383
0.0448203
0.0423792
0.0408272
0.0396306
0.0385339
0.0374309
0.0362955
0.0351478
0.0340404
0.0330542
0.0322973
0.0318977
0.0319533
0.0323957
0.0333789
0.0348848
0.0367741
0.00548455
0.0172331
0.0350307
0.0514856
0.0650579
0.0760422
0.020133
0.0415206
0.0634071
0.0796268
0.0915122
0.10085
0.0242862
0.0540032
0.0785731
0.0957546
0.108276
0.118057
0.0268831
0.0633205
0.0892704
0.107366
0.120747
0.131425
0.0320897
0.071001
0.0978365
0.116739
0.131007
0.142629
0.0363518
0.0775944
0.105048
0.124696
0.139847
0.152363
0.0398241
0.0832814
0.11121
0.131577
0.147601
0.160957
0.0426304
0.0881219
0.116453
0.137537
0.15443
0.168585
0.0448587
0.0921332
0.120837
0.142655
0.160417
0.17535
0.0465694
0.0953183
0.124392
0.146967
0.165609
0.181319
0.0478104
0.0976723
0.127133
0.150492
0.170033
0.186534
0.0486288
0.0991813
0.12906
0.153229
0.173698
0.191025
0.0489184
0.0998553
0.130158
0.155161
0.176599
0.194808
0.0486794
0.099686
0.130389
0.156253
0.178715
0.197884
0.0478556
0.0986503
0.129723
0.156436
0.179997
0.200243
0.0464187
0.0967094
0.12808
0.155632
0.180354
0.201854
0.0443289
0.0938071
0.125358
0.153704
0.179683
0.202661
0.0415272
0.0898626
0.121419
0.150459
0.177773
0.202569
0.0379263
0.084755
0.116067
0.14563
0.174313
0.201398
0.0334016
0.078286
0.10901
0.138825
0.168794
0.198803
0.027802
0.0700851
0.0997739
0.129453
0.160365
0.194042
0.0249523
0.0593323
0.0874343
0.116527
0.147547
0.185274
0.0204243
0.0444343
0.0696546
0.0980774
0.127813
0.166666
0.00525298
0.0185367
0.0406998
0.0706306
0.0995688
0.119511
0.122512
0.124449
0.115433
0.0970606
0.0804159
0.0672139
0.0579629
0.0522503
0.0489353
0.0469365
0.0455557
0.044407
0.0433013
0.0421592
0.0409632
0.0397358
0.0385336
0.0374495
0.0366141
0.0361851
0.0362667
0.0367833
0.037968
0.0398691
0.128083
0.13367
0.127728
0.111007
0.0920426
0.0773505
0.0673126
0.0607262
0.0566416
0.0541842
0.0525972
0.0514088
0.0503487
0.0492754
0.0481243
0.0468782
0.0455569
0.0442175
0.0429628
0.0419451
0.0413467
0.041367
0.0419243
0.0434894
0.137778
0.153206
0.153196
0.142806
0.118529
0.0960387
0.0798863
0.0699096
0.0646333
0.0618141
0.0602074
0.0591394
0.0582606
0.0573881
0.0564193
0.0553006
0.0540149
0.05258
0.0510545
0.0495497
0.0482337
0.0473362
0.0472656
0.0481353
0.148122
0.166437
0.176472
0.174976
0.163918
0.13883
0.109464
0.0887657
0.0764792
0.0702503
0.0677573
0.0667764
0.0662799
0.0658422
0.0652777
0.0644974
0.0634566
0.0621435
0.060579
0.0588268
0.0570019
0.055288
0.054061
0.054287
0.158103
0.176292
0.19059
0.197613
0.195707
0.185597
0.163199
0.132051
0.104539
0.0877369
0.0791108
0.0753929
0.0743039
0.0741293
0.0740793
0.0738654
0.0733115
0.0723645
0.0710217
0.0693079
0.0672906
0.0650937
0.0628966
0.0621894
0.167411
0.184774
0.199717
0.21035
0.214774
0.212565
0.20337
0.183232
0.154916
0.126561
0.10531
0.0931493
0.0873565
0.0849774
0.0842968
0.0841812
0.0840003
0.0834656
0.0824564
0.0809414
0.0789473
0.0765743
0.0738496
0.0722118
0.175982
0.192504
0.206864
0.218004
0.225017
0.227055
0.224325
0.21542
0.197354
0.173755
0.149874
0.129932
0.116058
0.107957
0.103647
0.101414
0.100082
0.0989319
0.0975645
0.0957778
0.093498
0.0907811
0.0876078
0.0852532
0.183819
0.199702
0.213262
0.223938
0.231405
0.235463
0.235882
0.232754
0.224316
0.210354
0.193667
0.17677
0.16184
0.150005
0.141236
0.134859
0.130045
0.126078
0.122433
0.118778
0.114936
0.11087
0.10662
0.103381
0.190941
0.206449
0.21939
0.22958
0.237067
0.24203
0.244613
0.244707
0.24223
0.236475
0.228173
0.218382
0.2081
0.198075
0.188739
0.180224
0.172452
0.165238
0.158386
0.151736
0.1452
0.138783
0.132785
0.128444
0.197375
0.212769
0.225385
0.235386
0.243081
0.248852
0.253005
0.255625
0.256588
0.255813
0.253291
0.24902
0.243407
0.236704
0.229215
0.221196
0.212849
0.204314
0.195692
0.187069
0.178558
0.17039
0.16316
0.15812
0.203152
0.218652
0.231228
0.241351
0.249513
0.256177
0.26165
0.266021
0.269187
0.270981
0.27122
0.269983
0.26708
0.262591
0.256801
0.249928
0.242204
0.233853
0.22509
0.216129
0.207226
0.198771
0.191438
0.18632
0.208293
0.224077
0.236831
0.24729
0.256063
0.2636
0.270131
0.275662
0.280038
0.283054
0.284522
0.284367
0.282652
0.279199
0.274323
0.268236
0.261159
0.253331
0.245002
0.236417
0.227885
0.219829
0.212846
0.207842
0.212816
0.229016
0.242085
0.252985
0.262382
0.270667
0.277966
0.284196
0.28916
0.292648
0.294502
0.294654
0.293226
0.2901
0.285546
0.279795
0.273033
0.265461
0.257286
0.248775
0.240266
0.232224
0.225242
0.220127
0.216737
0.233449
0.2469
0.258251
0.268195
0.27705
0.284847
0.291438
0.296607
0.300166
0.301998
0.302077
0.300562
0.297363
0.292729
0.286847
0.279926
0.272154
0.263734
0.25492
0.246068
0.237706
0.230482
0.225172
0.220074
0.237376
0.251225
0.262976
0.273335
0.28256
0.290613
0.297308
0.302435
0.305832
0.307425
0.307209
0.305265
0.30164
0.296624
0.290405
0.283172
0.275115
0.266429
0.257343
0.248212
0.239585
0.232139
0.226664
0.222852
0.240823
0.25506
0.267126
0.277749
0.287139
0.295216
0.301784
0.306648
0.309651
0.310661
0.309851
0.307348
0.303323
0.297969
0.291464
0.283987
0.27572
0.266853
0.257623
0.248378
0.239643
0.23208
0.226568
0.225114
0.243863
0.258477
0.270761
0.281482
0.290823
0.298679
0.304856
0.309101
0.311329
0.311717
0.310335
0.307209
0.302536
0.296557
0.289479
0.281507
0.272841
0.263688
0.254291
0.244971
0.236182
0.228545
0.223078
0.226928
0.246629
0.261626
0.274036
0.284689
0.293744
0.301079
0.306467
0.309807
0.311137
0.310454
0.307901
0.303585
0.297799
0.29078
0.282763
0.273973
0.264622
0.254922
0.245105
0.235465
0.226414
0.218574
0.213106
0.228409
0.249337
0.264765
0.277229
0.287638
0.296126
0.30257
0.306724
0.308635
0.308288
0.305861
0.301416
0.295328
0.287883
0.279344
0.269959
0.259954
0.249539
0.238919
0.228311
0.217985
0.208333
0.200042
0.194401
0.229752
0.252333
0.268288
0.280746
0.29071
0.298254
0.303182
0.305464
0.305036
0.302154
0.296919
0.289843
0.281276
0.271551
0.260977
0.249826
0.238329
0.226685
0.215067
0.203642
0.192613
0.182316
0.173474
0.167504
0.231296
0.256143
0.272743
0.28512
0.294366
0.300437
0.303095
0.302363
0.29849
0.291722
0.282774
0.272157
0.26039
0.247916
0.235091
0.222185
0.209397
0.196873
0.184719
0.173021
0.161877
0.15148
0.142419
0.13619
0.233638
0.26154
0.278816
0.290923
0.298979
0.302756
0.301919
0.296883
0.287957
0.276252
0.262631
0.247942
0.232869
0.217903
0.203358
0.189413
0.176161
0.163639
0.151853
0.140794
0.130463
0.120888
0.112378
0.106331
0.237853
0.26954
0.287172
0.298536
0.304584
0.304568
0.298969
0.287743
0.272677
0.255287
0.236978
0.218823
0.201509
0.185377
0.170523
0.156908
0.144429
0.132973
0.122434
0.112731
0.103817
0.0956654
0.0883953
0.0832958
0.24624
0.280975
0.298013
0.307733
0.310487
0.305186
0.292474
0.273928
0.252311
0.229928
0.208472
0.188877
0.171451
0.156105
0.142557
0.130486
0.119617
0.109737
0.100704
0.0924401
0.0849273
0.0782075
0.0724397
0.0689358
0.00699659
0.030723
0.0741579
0.112873
0.13543
0.144806
0.0210959
0.0566929
0.09893
0.135808
0.168236
0.213238
0.0303961
0.0761911
0.116301
0.152909
0.189792
0.235072
0.037372
0.0889771
0.127525
0.163848
0.20155
0.243964
0.0429283
0.0977318
0.134839
0.170319
0.207137
0.246813
0.0473158
0.103658
0.13933
0.173466
0.208642
0.24585
0.0507048
0.107457
0.141653
0.174094
0.207361
0.242309
0.0532244
0.109588
0.142253
0.172862
0.204048
0.237108
0.0549788
0.110362
0.141546
0.170071
0.19933
0.230965
0.0560717
0.11006
0.139606
0.166118
0.193642
0.224408
0.0565245
0.108739
0.136698
0.161249
0.187309
0.2179
0.0564453
0.106571
0.132962
0.155644
0.180555
0.211747
0.055778
0.103612
0.128497
0.149426
0.17352
0.206162
0.0548409
0.099845
0.123374
0.142668
0.166267
0.201283
0.0535968
0.0953489
0.117636
0.135398
0.15878
0.197146
0.0520164
0.0901784
0.111306
0.127607
0.150957
0.193548
0.0500713
0.0843657
0.104386
0.119249
0.142624
0.190018
0.04772
0.0779202
0.0968573
0.110249
0.133587
0.185857
0.0448883
0.070843
0.0886826
0.100511
0.123515
0.180188
0.0414271
0.0631329
0.0798
0.0899368
0.111947
0.171846
0.0370559
0.0547935
0.0700882
0.0784522
0.0983608
0.159571
0.0313423
0.0457527
0.0591832
0.0656697
0.082243
0.142078
0.0232976
0.03496
0.0456549
0.0502968
0.0623463
0.117833
0.00764429
0.0133853
0.021163
0.0265225
0.0345289
0.0810557
0.263458
0.29495
0.310247
0.317137
0.314216
0.302158
0.280834
0.254922
0.228153
0.20323
0.181443
0.162959
0.147346
0.133988
0.12231
0.111877
0.102406
0.0937349
0.0858005
0.0786113
0.0722445
0.0668508
0.0627457
0.0609653
0.278716
0.307435
0.321313
0.323728
0.314752
0.29313
0.26342
0.232059
0.203342
0.179191
0.159583
0.143578
0.130132
0.118431
0.107939
0.0983521
0.0895415
0.0814903
0.0742567
0.0679608
0.0627767
0.0589256
0.0566854
0.0563567
0.287634
0.316276
0.32839
0.325673
0.308745
0.277202
0.241505
0.208564
0.181575
0.160455
0.143683
0.129699
0.117451
0.106369
0.0961871
0.0868273
0.0783251
0.0707844
0.064354
0.059218
0.0555609
0.0534943
0.0529814
0.0534991
0.291456
0.320402
0.330181
0.32178
0.294809
0.256087
0.218664
0.188177
0.164962
0.146929
0.131957
0.118722
0.106636
0.0955214
0.0853535
0.0762008
0.068197
0.0614929
0.0562533
0.0526161
0.050606
0.0500634
0.050501
0.0515639
0.291333
0.320361
0.326207
0.311023
0.27473
0.23345
0.198847
0.172856
0.153046
0.136672
0.122096
0.108688
0.0963669
0.0851659
0.075187
0.0665741
0.0594514
0.0539344
0.0501023
0.0479242
0.0472116
0.0475213
0.0485204
0.049822
0.288024
0.316297
0.316698
0.29448
0.252438
0.213629
0.184157
0.162045
0.143904
0.127683
0.112663
0.0988482
0.0863554
0.0753351
0.065937
0.0582364
0.052272
0.0480485
0.0454929
0.044413
0.0444899
0.0452418
0.0466109
0.0479312
0.282444
0.309
0.30381
0.274204
0.232588
0.199036
0.174075
0.153852
0.135735
0.118822
0.103197
0.0891074
0.0767737
0.0663676
0.0579097
0.0513425
0.0465732
0.0434737
0.041857
0.0414742
0.0419033
0.0429988
0.0444448
0.0457163
0.275708
0.299457
0.28921
0.254833
0.217567
0.18929
0.16676
0.146584
0.127554
0.109775
0.0937186
0.0797228
0.0680113
0.0585662
0.0512295
0.0457898
0.0420329
0.0397479
0.0387126
0.0386873
0.0392937
0.0404955
0.0419108
0.0430986
0.268656
0.288979
0.274702
0.239393
0.207782
0.182821
0.160587
0.139302
0.119067
0.100616
0.0845095
0.0710875
0.0603345
0.0520075
0.0457681
0.0412828
0.0382697
0.0364975
0.0357626
0.0358511
0.0365068
0.0376489
0.0389628
0.0400475
0.26198
0.278768
0.261791
0.229147
0.201965
0.177951
0.154537
0.131666
0.110362
0.0916026
0.0759392
0.0634359
0.0538006
0.0465725
0.0412782
0.0375196
0.0349983
0.033498
0.0328517
0.0329036
0.0334583
0.0344427
0.0355974
0.0365651
0.256023
0.269863
0.251717
0.223626
0.198507
0.173551
0.148165
0.123678
0.101666
0.0830885
0.0682378
0.056837
0.0483197
0.0420605
0.0375152
0.0342716
0.0320438
0.0306418
0.0299352
0.0298209
0.0301609
0.0308919
0.0318271
0.0326597
0.25087
0.263011
0.245605
0.221213
0.196104
0.169006
0.141371
0.115543
0.0932696
0.0752963
0.0614947
0.051234
0.0437294
0.0382651
0.0342831
0.0313877
0.0293156
0.0278988
0.027032
0.0266442
0.0266714
0.027036
0.0276669
0.0283274
0.246421
0.258825
0.243359
0.220906
0.194031
0.164077
0.134238
0.10748
0.0854202
0.0683531
0.0556936
0.0465017
0.0398553
0.0350147
0.031445
0.0287806
0.0267798
0.025287
0.0242059
0.0234783
0.0230682
0.0229556
0.0231251
0.0235209
0.242662
0.257159
0.24327
0.221628
0.191812
0.158704
0.126946
0.0997226
0.0782591
0.0622769
0.0507437
0.0424933
0.0365458
0.0321837
0.028914
0.026405
0.0244338
0.0228494
0.0215488
0.0204617
0.0195417
0.0187771
0.0182364
0.0181127
0.240121
0.257026
0.245653
0.222897
0.189241
0.152945
0.119667
0.0924394
0.0718567
0.0570219
0.0465275
0.0390741
0.0336843
0.0296881
0.02664
0.0242422
0.0222897
0.0206344
0.0191618
0.017774
0.0163779
0.0148906
0.0132918
0.0119075
0.238617
0.259785
0.249989
0.224324
0.18623
0.146913
0.112572
0.0857332
0.0662063
0.0524976
0.042923
0.0361309
0.031185
0.0274729
0.0245965
0.0222898
0.020367
0.0186887
0.0171399
0.0156118
0.0139843
0.0121116
0.00979712
0.00645474
0.237844
0.265119
0.256009
0.225691
0.182761
0.140722
0.105783
0.0796459
0.0612556
0.0485991
0.0398187
0.0335713
0.0289819
0.0254976
0.022764
0.0205449
0.0186744
0.0170281
0.0155045
0.0140105
0.0124476
0.0107003
0.0086094
0.00578649
0.238369
0.272979
0.263294
0.226737
0.178809
0.134458
0.0993706
0.0741676
0.0569251
0.0452216
0.0371182
0.0313187
0.0270184
0.0237209
0.0211108
0.0189778
0.0171735
0.0155868
0.0141275
0.0127137
0.0112596
0.00966981
0.00783241
0.00548303
0.241406
0.283461
0.271333
0.227201
0.17434
0.128187
0.0933666
0.0692547
0.0531256
0.0422707
0.0347404
0.0293094
0.0252445
0.022101
0.0195973
0.0175443
0.0158078
0.0142866
0.0128987
0.0115699
0.010224
0.0087833
0.00717495
0.00522302
0.247429
0.296624
0.279548
0.226738
0.169318
0.121948
0.0877674
0.0648427
0.0497698
0.039666
0.0326205
0.0274929
0.02362
0.0206039
0.0181914
0.0162109
0.0145393
0.0130834
0.0117674
0.010524
0.00928618
0.00799204
0.00659784
0.00498527
0.25769
0.312562
0.286826
0.224898
0.1637
0.115751
0.0825347
0.0608613
0.0467841
0.0373426
0.0307071
0.02583
0.0221153
0.0192062
0.0168734
0.0149597
0.013351
0.0119604
0.0107178
0.00956196
0.00843403
0.00728485
0.00608937
0.0047702
0.273837
0.33125
0.291687
0.221674
0.157453
0.10957
0.0776236
0.0572495
0.0441047
0.0352468
0.0289591
0.0242913
0.0207098
0.0178935
0.0156333
0.0137838
0.012238
0.0109144
0.00974783
0.00868207
0.00766518
0.00665757
0.00564575
0.00457975
0.297984
0.351865
0.294581
0.216695
0.15043
0.103357
0.072994
0.0539521
0.0416771
0.0333346
0.0273453
0.0228558
0.0193901
0.0166581
0.0144675
0.0126822
0.0112013
0.00994751
0.00885966
0.00788592
0.0069797
0.00610808
0.00526368
0.00441443
0.335797
0.368187
0.293615
0.209136
0.142475
0.0971056
0.0686217
0.0509248
0.0394582
0.0315731
0.0258429
0.0215097
0.018149
0.0154973
0.0133762
0.011657
0.0102438
0.00906275
0.00805597
0.00717502
0.00637735
0.00563431
0.00494056
0.00427434
0.00486399
0.0286891
0.0656453
0.110822
0.152316
0.194762
0.018499
0.0610751
0.104637
0.152433
0.2132
0.3254
0.0270744
0.0779583
0.126032
0.17827
0.244768
0.339911
0.0340251
0.0895757
0.140363
0.194708
0.259675
0.335004
0.0399993
0.0986328
0.150772
0.205183
0.265498
0.324219
0.0449918
0.105972
0.158468
0.211558
0.266095
0.311538
0.0490355
0.111905
0.164053
0.214994
0.263586
0.298457
0.052188
0.116569
0.167882
0.21629
0.259296
0.285809
0.0545156
0.120035
0.170214
0.216038
0.254146
0.274098
0.0560881
0.122365
0.171263
0.214689
0.248678
0.263695
0.0569737
0.123616
0.171217
0.212587
0.243278
0.254794
0.0572408
0.12384
0.170228
0.209973
0.238238
0.247477
0.0569664
0.123085
0.168414
0.207006
0.233749
0.241768
0.0561291
0.121392
0.165844
0.203765
0.229907
0.237662
0.0546641
0.118791
0.162537
0.200259
0.22672
0.235158
0.0525428
0.115282
0.158459
0.196413
0.224104
0.234225
0.0497449
0.110832
0.153517
0.19207
0.221869
0.234839
0.0462477
0.105367
0.147552
0.186982
0.219679
0.236975
0.0420274
0.0987563
0.140325
0.180814
0.216975
0.240671
0.0370738
0.090774
0.131463
0.172973
0.212963
0.24588
0.0314077
0.0809977
0.12036
0.162613
0.206425
0.252022
0.0250675
0.0685095
0.105875
0.148425
0.195356
0.256439
0.0172321
0.0507512
0.0852843
0.128109
0.175578
0.248384
0.00444049
0.0220746
0.0533634
0.0985588
0.139017
0.148463
0.387125
0.374709
0.28494
0.198621
0.133676
0.0908913
0.0645105
0.0481379
0.0374168
0.0299385
0.024437
0.0202448
0.0169832
0.0144111
0.0123612
0.0107111
0.00936853
0.00826279
0.00733844
0.00654967
0.00585673
0.00523315
0.00467273
0.00415818
0.415689
0.36366
0.269538
0.185815
0.124423
0.0848673
0.0606849
0.0455745
0.0355315
0.0284151
0.0231186
0.0190576
0.0158925
0.0134011
0.0114251
0.00984695
0.00857769
0.00754888
0.00670716
0.00600853
0.00541482
0.00490005
0.0044552
0.00406359
0.396818
0.341174
0.251039
0.17202
0.115259
0.0792102
0.0571745
0.0432248
0.0337881
0.0269939
0.021884
0.0179475
0.0148784
0.0124695
0.0105698
0.00906613
0.00787182
0.00692054
0.0061604
0.0055484
0.00504683
0.00462886
0.00428178
0.00398759
0.371832
0.316099
0.231541
0.15835
0.106638
0.0740483
0.0539945
0.0410796
0.0321775
0.0256703
0.0207322
0.0169158
0.0139427
0.0116179
0.00979659
0.00836864
0.00724983
0.00637545
0.00569455
0.00516423
0.00474622
0.00441208
0.00414563
0.00392715
0.346508
0.291075
0.212613
0.145586
0.0988344
0.0694386
0.0511414
0.0391289
0.0306934
0.0244419
0.0196638
0.0159643
0.0130872
0.0108475
0.00910513
0.00775303
0.00670901
0.00590966
0.00530435
0.00484936
0.00450517
0.0042416
0.00403995
0.00387946
0.322676
0.267963
0.195258
0.134147
0.0919588
0.0653818
0.0485984
0.0373618
0.0293308
0.0233084
0.0186806
0.015095
0.0123132
0.0101582
0.00849414
0.0072166
0.00624531
0.00551786
0.0049832
0.00459603
0.00431527
0.00410942
0.00395865
0.00384217
0.301076
0.247421
0.179921
0.124185
0.0860114
0.0618464
0.046343
0.0357669
0.0280865
0.0222705
0.0177845
0.0143096
0.0116214
0.0095493
0.00796134
0.00675564
0.00585376
0.0051938
0.00472363
0.00439595
0.00416821
0.00400839
0.00389665
0.00381333
0.282056
0.229599
0.166719
0.115683
0.0809319
0.0587856
0.0443506
0.0343334
0.026958
0.0213294
0.0169774
0.0136091
0.0110114
0.00901907
0.00750367
0.00636587
0.00552883
0.00493077
0.00451795
0.00424096
0.00405646
0.0039326
0.00384999
0.0037916
0.265709
0.214483
0.155593
0.108541
0.0766333
0.0561484
0.0425975
0.0330518
0.025943
0.0204856
0.0162598
0.0129934
0.0104819
0.008565
0.0071175
0.00604256
0.00526476
0.00472199
0.0043586
0.00412344
0.00397312
0.0038768
0.00381595
0.00377597
0.252015
0.201952
0.146396
0.102619
0.0730216
0.0538853
0.0410616
0.0319137
0.0250388
0.0197383
0.0156313
0.0124611
0.0100306
0.00818376
0.00679854
0.00578054
0.00505551
0.00456065
0.00423846
0.00403666
0.00391258
0.00383687
0.00379202
0.00376519
0.240889
0.191836
0.138945
0.0977714
0.0700073
0.051951
0.0397227
0.0309104
0.0242421
0.0190859
0.0150901
0.0120099
0.00965436
0.00787143
0.00654214
0.00557446
0.00489507
0.00444035
0.00415126
0.00397506
0.0038704
0.00380957
0.00377602
0.00375816
0.232223
0.183953
0.133057
0.0938606
0.0675104
0.0503055
0.0385617
0.0300337
0.0235491
0.018526
0.0146337
0.0116368
0.00934957
0.00762381
0.00634361
0.00541914
0.00477786
0.00435541
0.00409165
0.00393411
0.00384299
0.00379223
0.0037664
0.00375402
0.225916
0.178134
0.128564
0.0907668
0.0654616
0.0489133
0.0375607
0.0292748
0.0229553
0.0180551
0.0142586
0.0113381
0.00911228
0.00743671
0.00619849
0.00530988
0.00469903
0.00430108
0.00405546
0.00391036
0.00382762
0.0037831
0.00376154
0.00375208
0.2219
0.174242
0.125326
0.0883894
0.0638013
0.0477425
0.0367025
0.0286246
0.0224547
0.0176684
0.0139607
0.0111097
0.00893842
0.00730608
0.00610271
0.00524255
0.00465453
0.00427366
0.00403962
0.00390158
0.003823
0.00378087
0.00376044
0.00375165
0.220186
0.172187
0.123232
0.0866428
0.0624759
0.0467627
0.0359702
0.0280726
0.02204
0.0173603
0.013735
0.0109471
0.00882392
0.00722811
0.00605264
0.00521372
0.00464119
0.00427017
0.00404158
0.00390595
0.00382767
0.00378422
0.00376228
0.00375214
0.220786
0.171925
0.122196
0.0854517
0.0614347
0.0459438
0.0353456
0.027607
0.0217027
0.0171239
0.0135759
0.0108457
0.00876468
0.0071993
0.00604507
0.00521973
0.00465463
0.00428787
0.00405978
0.00392212
0.00384063
0.00379343
0.00376721
0.00375353
0.223856
0.173466
0.122151
0.0847535
0.0606267
0.0452535
0.0348089
0.0272143
0.0214327
0.0169515
0.0134771
0.0108003
0.00875648
0.00721499
0.00607462
0.00525687
0.00469531
0.0043263
0.00409324
0.00394942
0.00386135
0.00380755
0.00377519
0.00375621
0.229625
0.176868
0.123035
0.0844843
0.0600139
0.0446624
0.0343387
0.0268791
0.0212187
0.0168346
0.0134321
0.0108055
0.00879393
0.00727171
0.00614178
0.00532717
0.0047613
0.00438434
0.0041416
0.0039878
0.00389003
0.00382703
0.00378635
0.0037602
0.238394
0.182217
0.124775
0.0845463
0.0595329
0.0441427
0.0339209
0.0265899
0.0210499
0.0167641
0.0134339
0.0108558
0.00887467
0.00736938
0.00624537
0.00542719
0.00485177
0.00446182
0.00420503
0.00403763
0.00392713
0.00385236
0.00380118
0.0037659
0.250455
0.189577
0.127248
0.0848374
0.0591089
0.0436487
0.0335287
0.0263308
0.020916
0.0167321
0.0134759
0.0109475
0.00899604
0.00750457
0.00638195
0.00555602
0.00496654
0.00455912
0.0042842
0.00409966
0.00397341
0.00388427
0.00382036
0.00377382
0.265936
0.198863
0.130215
0.0851879
0.0586521
0.0431337
0.0331341
0.0260834
0.0208037
0.0167283
0.0135506
0.0110739
0.00915225
0.00767324
0.00654971
0.00571294
0.00510573
0.004677
0.00438019
0.00417502
0.00402994
0.00392373
0.00384471
0.00378454
0.283768
0.209554
0.133198
0.0853241
0.0580579
0.0425527
0.0327124
0.0258311
0.0207009
0.0167433
0.0136503
0.0112289
0.00933865
0.00787224
0.00674683
0.00589727
0.00526968
0.00481648
0.00449437
0.00426521
0.00409809
0.00397189
0.00387516
0.00379872
0.299681
0.220213
0.135275
0.0849361
0.0572302
0.0418743
0.0322465
0.0255611
0.0205977
0.0167693
0.0137682
0.0114069
0.00955094
0.00809849
0.00697136
0.00610816
0.00545852
0.0049785
0.0046282
0.00437184
0.00417945
0.0040302
0.00391271
0.00381707
0.291546
0.225779
0.134898
0.0837158
0.0561218
0.0410621
0.0317156
0.0252621
0.0204852
0.0167984
0.0138977
0.0116023
0.00978447
0.00834846
0.00722091
0.00634439
0.00567215
0.00516391
0.00478323
0.00449693
0.00427615
0.00410027
0.00395747
0.00383968
)
;

boundaryField
{
    rotor
    {
        type            kqRWallFunction;
        value           nonuniform List<scalar> 
144
(
0.00664495
0.0102674
0.0175255
0.0233844
0.0348452
0.117669
0.00664495
0.0202793
0.0241462
0.0269007
0.0317312
0.0350053
0.0375787
0.0397111
0.0414892
0.0429509
0.0440474
0.0446935
0.0448404
0.0445575
0.0437825
0.0425624
0.0409483
0.0389109
0.0363544
0.0331623
0.0292337
0.0249526
0.0183794
0.005749
0.005749
0.0259484
0.0569772
0.0877723
0.119051
0.116967
0.00548455
0.0172331
0.0350307
0.0514856
0.0650579
0.0760422
0.00548455
0.020133
0.0242862
0.0268831
0.0320897
0.0363518
0.0398241
0.0426304
0.0448587
0.0465694
0.0478104
0.0486288
0.0489184
0.0486794
0.0478556
0.0464187
0.0443289
0.0415272
0.0379263
0.0334016
0.027802
0.0249523
0.0204243
0.00525298
0.00525298
0.0185367
0.0406998
0.0706306
0.0995688
0.119511
0.00699659
0.030723
0.0741579
0.112873
0.13543
0.144806
0.00699659
0.0210959
0.0303961
0.037372
0.0429283
0.0473158
0.0507048
0.0532244
0.0549788
0.0560717
0.0565245
0.0564453
0.055778
0.0548409
0.0535968
0.0520164
0.0500713
0.04772
0.0448883
0.0414271
0.0370559
0.0313423
0.0232976
0.00764429
0.00764429
0.0133853
0.021163
0.0265225
0.0345289
0.0810557
0.00486399
0.0286891
0.0656453
0.110822
0.152316
0.194762
0.00486399
0.018499
0.0270744
0.0340251
0.0399993
0.0449918
0.0490355
0.052188
0.0545156
0.0560881
0.0569737
0.0572408
0.0569664
0.0561291
0.0546641
0.0525428
0.0497449
0.0462477
0.0420274
0.0370738
0.0314077
0.0250675
0.0172321
0.00444049
0.00444049
0.0220746
0.0533634
0.0985588
0.139017