/*--------------------------------*- C++ -*----------------------------------*\
  =========                 |
  \\      /  F ield         | OpenFOAM: The Open Source CFD Toolbox
   \\    /   O peration     | Website:  https://openfoam.org
    \\  /    A nd           | Version:  11
     \\/     M anipulation  |
\*---------------------------------------------------------------------------*/
FoamFile
{
    format      ascii;
    class       volScalarField;
    location    "0.1";
    object      p;
}
// * * * * * * * * * * * * * * * * * * * * * * * * * * * * * * * * * * * * * //

dimensions      [0 2 -2 0 0 0 0];

internalField   nonuniform List<scalar> 
2880
(
-0.25212
-0.30836
-0.373768
-0.443846
-0.458633
-0.75636
-0.262772
-0.313238
-0.376726
-0.446264
-0.453791
-0.572559
-0.272373
-0.317403
-0.377048
-0.443298
-0.45104
-0.472869
-0.270515
-0.319512
-0.373921
-0.43532
-0.437471
-0.40999
-0.269061
-0.320559
-0.368496
-0.420715
-0.414202
-0.365551
-0.270186
-0.319907
-0.360313
-0.400595
-0.385534
-0.328177
-0.269978
-0.316404
-0.349544
-0.376188
-0.354932
-0.294589
-0.267988
-0.309986
-0.335646
-0.349936
-0.323913
-0.264039
-0.26426
-0.300999
-0.319135
-0.322954
-0.29311
-0.235948
-0.258932
-0.289864
-0.300814
-0.295883
-0.263039
-0.209776
-0.252185
-0.277088
-0.281527
-0.269203
-0.234148
-0.185241
-0.244203
-0.263389
-0.26201
-0.243292
-0.206734
-0.162265
-0.235328
-0.24924
-0.242824
-0.21847
-0.180885
-0.140959
-0.225926
-0.235053
-0.224345
-0.195009
-0.156669
-0.121385
-0.216342
-0.221191
-0.206802
-0.173179
-0.134248
-0.103441
-0.206896
-0.207938
-0.190321
-0.153174
-0.113881
-0.0872023
-0.19788
-0.195488
-0.174936
-0.134928
-0.0957975
-0.073097
-0.189575
-0.183942
-0.160531
-0.118197
-0.0798877
-0.0614448
-0.182171
-0.173294
-0.146828
-0.102366
-0.0657093
-0.0520564
-0.175655
-0.163441
-0.133438
-0.0866315
-0.0521719
-0.0441314
-0.170319
-0.154307
-0.119841
-0.0696731
-0.0372047
-0.0355063
-0.166728
-0.146141
-0.105182
-0.049381
-0.0175159
-0.0209963
-0.165239
-0.139615
-0.088898
-0.0247296
0.0110844
0.00368993
-0.164755
-0.134549
-0.073618
-0.000160898
0.0533697
0.0255295
0.0425505
0.375628
0.422726
0.457627
0.463829
0.459284
0.450563
0.441527
0.433618
0.427123
0.421851
0.417622
0.414308
0.411747
0.409736
0.408079
0.406643
0.405373
0.404172
0.4028
0.401571
0.403266
0.411096
0.408728
-0.129268
0.222478
0.329522
0.387603
0.407289
0.411988
0.40994
0.405842
0.401695
0.398127
0.39516
0.392765
0.390908
0.389494
0.388385
0.387438
0.386563
0.385735
0.384866
0.383682
0.382496
0.384456
0.393552
0.391352
-0.17423
0.121854
0.251731
0.323164
0.353373
0.365949
0.369881
0.370348
0.369736
0.368942
0.368176
0.367544
0.367093
0.366796
0.36657
0.36632
0.365998
0.365603
0.365056
0.364052
0.362892
0.365058
0.375342
0.373475
-0.18529
0.0611155
0.190636
0.26653
0.303539
0.322183
0.331143
0.335643
0.33823
0.339979
0.341255
0.342272
0.34315
0.343917
0.344541
0.344971
0.34519
0.345222
0.344995
0.344181
0.343083
0.345498
0.356828
0.354937
-0.18815
0.0211094
0.142808
0.218246
0.258719
0.281519
0.294398
0.302257
0.307613
0.311605
0.314712
0.317232
0.319337
0.321102
0.322532
0.323616
0.324363
0.324819
0.324918
0.324313
0.323317
0.326005
0.338294
0.336258
-0.184331
-0.00665781
0.104809
0.177474
0.219176
0.24447
0.260145
0.270616
0.278234
0.284117
0.288814
0.292666
0.295881
0.298563
0.300749
0.302456
0.303717
0.304591
0.305019
0.304644
0.303777
0.306723
0.319861
0.317737
-0.174959
-0.0255428
0.0745283
0.14298
0.184507
0.211078
0.228583
0.240951
0.25032
0.257731
0.263762
0.268767
0.272967
0.276481
0.27937
0.281668
0.283425
0.284713
0.285478
0.285355
0.284648
0.287829
0.301689
0.299592
-0.162651
-0.0379287
0.0505477
0.113774
0.154106
0.181075
0.199657
0.213312
0.223961
0.232566
0.239689
0.245675
0.250737
0.255003
0.258541
0.2614
0.26364
0.265339
0.266451
0.266606
0.266092
0.269485
0.283933
0.282031
-0.14935
-0.0457895
0.0316362
0.0890433
0.127417
0.154096
0.173178
0.187626
0.199151
0.20866
0.216663
0.223473
0.229291
0.234235
0.238379
0.241774
0.244488
0.246601
0.248074
0.248538
0.248256
0.251833
0.266717
0.265265
-0.136041
-0.0504673
0.0167432
0.0680067
0.103925
0.129791
0.148899
0.163741
0.175827
0.185999
0.1947
0.202205
0.208687
0.214252
0.218968
0.222888
0.226076
0.228616
0.230471
0.23128
0.231267
0.234984
0.250127
0.249523
-0.123118
-0.0528653
0.00482664
0.0500312
0.0831407
0.107795
0.126547
0.141466
0.153879
0.16452
0.173773
0.181867
0.188943
0.195089
0.200362
0.20481
0.208491
0.211484
0.213758
0.21496
0.215256
0.219024
0.234176
0.235106
-0.110782
-0.0536712
-0.00496201
0.0344637
0.0645572
0.0877391
0.105845
0.120602
0.133155
0.144117
0.153809
0.162414
0.170036
0.176743
0.182577
0.187578
0.191795
0.195297
0.198058
0.19974
0.200393
0.204003
0.218691
0.222571
-0.0992022
-0.0535371
-0.013278
0.0207129
0.0476618
0.0692466
0.0865127
0.100936
0.113483
0.124653
0.134701
0.143758
0.151895
0.159156
0.165573
0.171176
0.176003
0.180112
0.183493
0.185847
0.186989
0.189869
0.202729
0.213453
-0.0884801
-0.053151
-0.0207565
0.00811953
0.0320336
0.051971
0.0682692
0.0822369
0.0946711
0.105967
0.116306
0.125769
0.134395
0.142209
0.149233
0.155494
0.161027
0.165886
0.170092
0.173457
0.175514
0.177077
0.184931
0.211327
-0.0788901
-0.0531574
-0.0279502
-0.00394082
0.0172964
0.0355482
0.0508057
0.0642477
0.0765061
0.087869
0.0984481
0.108276
0.11736
0.125709
0.133337
0.140276
0.146575
0.152309
0.157514
0.162022
0.165761
0.171085
0.183859
0.189754
-0.0709195
-0.0541164
-0.0353664
-0.0157587
0.00294412
0.0195447
0.0337963
0.046707
0.0587617
0.0701551
0.0809329
0.0910807
0.100573
0.109395
0.117544
0.125037
0.131906
0.138194
0.143869
0.148675
0.152752
0.159481
0.174149
0.168807
-0.0652326
-0.0565857
-0.0435628
-0.0275729
-0.0113509
0.00356717
0.016929
0.0293539
0.0412074
0.0526147
0.0635626
0.0739906
0.0838387
0.0930647
0.101645
0.109571
0.116853
0.123508
0.129471
0.134472
0.138762
0.146046
0.161215
0.152203
-0.0627281
-0.0612472
-0.0529424
-0.0401317
-0.0261921
-0.012637
-4.92205e-05
0.0119423
0.0236186
0.0350447
0.0461527
0.0568369
0.0670028
0.0765803
0.0855223
0.0937992
0.101401
0.108333
0.114541
0.119796
0.124392
0.132049
0.147382
0.137458
-0.064397
-0.0689821
-0.0642323
-0.0539604
-0.0417454
-0.029333
-0.0174085
-0.00577257
0.00577856
0.0172556
0.0285401
0.0394826
0.049954
0.0598572
0.0691232
0.0777043
0.0855757
0.0927405
0.0991802
0.104709
0.109632
0.117566
0.132906
0.123402
-0.0709845
-0.0806809
-0.0779488
-0.0692962
-0.0583678
-0.0468522
-0.0354263
-0.0240279
-0.0125153
-0.00092035
0.0105928
0.0218316
0.0326316
0.0428697
0.0524575
0.061333
0.0694611
0.0768513
0.0835152
0.0893105
0.0945624
0.102683
0.117873
0.109681
-0.0823959
-0.096867
-0.0943809
-0.0864737
-0.0764455
-0.0655421
-0.0544029
-0.0430726
-0.0314606
-0.0196308
-0.0077873
0.00383381
0.015032
0.0256583
0.0356076
0.0448074
0.0532165
0.0608474
0.0677308
0.0737834
0.0793381
0.0875289
0.102388
0.0961645
-0.0967436
-0.117066
-0.113551
-0.105751
-0.0962382
-0.0856325
-0.074562
-0.063114
-0.0512291
-0.0389974
-0.0266642
-0.0145148
-0.00279094
0.00833151
0.0187325
0.028333
0.0370881
0.0450048
0.0521276
0.0584292
0.0642377
0.0723475
0.08664
0.0828375
-0.112696
-0.138385
-0.134177
-0.126975
-0.118007
-0.107474
-0.0962333
-0.0844017
-0.0719859
-0.0591156
-0.0460673
-0.0331773
-0.0207349
-0.00894632
0.00205443
0.0121856
0.0214033
0.0297028
0.0371303
0.0437028
0.049734
0.057602
0.0709966
0.0697898
-0.142919
-0.160631
-0.154843
-0.14899
-0.141221
-0.130982
-0.119668
-0.107294
-0.0940156
-0.0801495
-0.0660509
-0.0521159
-0.0386831
-0.0259898
-0.0141818
-0.00333706
0.00651009
0.015356
0.0232255
0.0301603
0.0364393
0.0439659
0.0560979
0.0572924
-0.320569
-0.307055
-0.301852
-0.301132
-0.305561
-0.323727
-0.3222
-0.309639
-0.306976
-0.308623
-0.314092
-0.335621
-0.324396
-0.313201
-0.313269
-0.316958
-0.321701
-0.334654
-0.323927
-0.316242
-0.318456
-0.323281
-0.327613
-0.334669
-0.323779
-0.318728
-0.322556
-0.327993
-0.332326
-0.336567
-0.325234
-0.321438
-0.326224
-0.331999
-0.336422
-0.339416
-0.326919
-0.324534
-0.329799
-0.335739
-0.34019
-0.342664
-0.328713
-0.327934
-0.333361
-0.339353
-0.343815
-0.346125
-0.330566
-0.33148
-0.336879
-0.34289
-0.347411
-0.349749
-0.332399
-0.33501
-0.34029
-0.34636
-0.351015
-0.353547
-0.334148
-0.338386
-0.343527
-0.349743
-0.354644
-0.357537
-0.335779
-0.341458
-0.346528
-0.353008
-0.358312
-0.361743
-0.337265
-0.344172
-0.349245
-0.356122
-0.362017
-0.366213
-0.338598
-0.346472
-0.351636
-0.359055
-0.365728
-0.370946
-0.339785
-0.348325
-0.353678
-0.361773
-0.369396
-0.375892
-0.340833
-0.349731
-0.355366
-0.364243
-0.372951
-0.380959
-0.341754
-0.350718
-0.356717
-0.366436
-0.376301
-0.385977
-0.342574
-0.351337
-0.35777
-0.368325
-0.379331
-0.390645
-0.343306
-0.351672
-0.358588
-0.369892
-0.381903
-0.394508
-0.343809
-0.35189
-0.359281
-0.371152
-0.383862
-0.396958
-0.34354
-0.352377
-0.360051
-0.372182
-0.385012
-0.397049
-0.34313
-0.353674
-0.36113
-0.373029
-0.385135
-0.393487
-0.344196
-0.355397
-0.362364
-0.373294
-0.384271
-0.386882
-0.345018
-0.356552
-0.362829
-0.372076
-0.383607
-0.383676
-0.209836
-0.1885
-0.1787
-0.172979
-0.166393
-0.157
-0.145337
-0.132344
-0.11782
-0.102425
-0.0867615
-0.0713465
-0.0565543
-0.042642
-0.0297625
-0.0179813
-0.00730837
0.00227467
0.0107953
0.0182803
0.0249351
0.0321857
0.042833
0.0459395
-0.252585
-0.221215
-0.207974
-0.200393
-0.194178
-0.185347
-0.173154
-0.159198
-0.143742
-0.12648
-0.108515
-0.0909696
-0.0743182
-0.0587957
-0.0445367
-0.0315747
-0.0198789
-0.0093893
-3.93151e-05
0.00822096
0.0155029
0.0227297
0.0320277
0.0365235
-0.282432
-0.252334
-0.237241
-0.230416
-0.225012
-0.216542
-0.204341
-0.188267
-0.170759
-0.151794
-0.131585
-0.111277
-0.0920688
-0.0743983
-0.0583982
-0.0440067
-0.0311109
-0.0195901
-0.00931802
-0.000178888
0.00794507
0.0155973
0.0240429
0.029434
-0.303382
-0.280195
-0.265912
-0.258706
-0.254831
-0.25043
-0.23975
-0.22272
-0.201375
-0.178015
-0.154697
-0.131678
-0.109698
-0.0894725
-0.0713226
-0.0552228
-0.0409621
-0.0283349
-0.0171277
-0.00712974
0.00184695
0.0102156
0.018444
0.0243224
-0.317541
-0.302207
-0.290933
-0.28472
-0.281734
-0.277999
-0.271553
-0.25914
-0.23689
-0.208879
-0.179672
-0.151539
-0.125954
-0.103119
-0.0828897
-0.0649851
-0.0492506
-0.035523
-0.0234732
-0.0127895
-0.00318364
0.00579205
0.0141612
0.0213446
-0.32755
-0.317818
-0.309884
-0.305234
-0.302825
-0.299815
-0.294029
-0.282969
-0.265224
-0.23957
-0.20687
-0.173044
-0.142392
-0.115566
-0.0927213
-0.0730192
-0.055747
-0.0410331
-0.0282879
-0.0171042
-0.00716411
0.00189161
0.0106094
0.0208131
-0.335233
-0.328722
-0.322968
-0.319227
-0.316728
-0.313526
-0.307195
-0.295985
-0.278601
-0.253947
-0.22392
-0.191503
-0.158853
-0.128709
-0.10257
-0.080395
-0.061599
-0.0457315
-0.0321245
-0.0205531
-0.0104962
-0.00110375
0.00825996
0.0189332
-0.341587
-0.336767
-0.331917
-0.328028
-0.324492
-0.319816
-0.311974
-0.299323
-0.281012
-0.25708
-0.228498
-0.197096
-0.165675
-0.13647
-0.110439
-0.087726
-0.0681244
-0.0513054
-0.0368379
-0.0243349
-0.0134294
-0.00347235
0.00582253
0.0142017
-0.347199
-0.343198
-0.338433
-0.333615
-0.328319
-0.321398
-0.3113
-0.296744
-0.277289
-0.253292
-0.225717
-0.19606
-0.166411
-0.138583
-0.113455
-0.0912199
-0.0717489
-0.0547794
-0.0399914
-0.0270596
-0.0156556
-0.0053451
0.00384785
0.0108237
-0.352472
-0.348865
-0.343727
-0.337627
-0.330272
-0.32087
-0.308343
-0.291871
-0.271303
-0.247131
-0.220314
-0.192142
-0.164069
-0.137425
-0.113051
-0.0912371
-0.0719537
-0.0550186
-0.0401905
-0.0272274
-0.0159097
-0.00596285
0.00268871
0.00822907
-0.357725
-0.354314
-0.348679
-0.341182
-0.331772
-0.319961
-0.305106
-0.286801
-0.265124
-0.240662
-0.214299
-0.187103
-0.160187
-0.134523
-0.110796
-0.0893189
-0.0701493
-0.0532014
-0.0383296
-0.0253996
-0.0143231
-0.00497234
0.002682
0.0065981
-0.363193
-0.359965
-0.353828
-0.345028
-0.333696
-0.319644
-0.302613
-0.28254
-0.259666
-0.234704
-0.208443
-0.18179
-0.155601
-0.130637
-0.107451
-0.086319
-0.0673327
-0.0504648
-0.0356292
-0.0227461
-0.0117587
-0.00243929
0.00554243
0.00911933
-0.369052
-0.366114
-0.359606
-0.349647
-0.336572
-0.320455
-0.301372
-0.279585
-0.255293
-0.22963
-0.203128
-0.176605
-0.15077
-0.126237
-0.10344
-0.0825969
-0.0637918
-0.0470105
-0.0321781
-0.0192147
-0.00796159
0.00239041
0.0131909
0.0178318
-0.375458
-0.372964
-0.366333
-0.355393
-0.340748
-0.322717
-0.301642
-0.277997
-0.252375
-0.225637
-0.19852
-0.171733
-0.145886
-0.121491
-0.0988887
-0.0782416
-0.0596023
-0.0429286
-0.0281186
-0.0150552
-0.00339501
0.00850074
0.0232047
0.0289837
-0.382527
-0.380685
-0.374217
-0.362486
-0.34643
-0.326609
-0.303596
-0.278084
-0.250878
-0.222826
-0.194753
-0.167334
-0.141151
-0.116646
-0.0940854
-0.0735955
-0.0551965
-0.0388163
-0.024324
-0.0115711
-9.36117e-05
0.012172
0.0282161
0.0336756
-0.390361
-0.389414
-0.38337
-0.371025
-0.353709
-0.332197
-0.307265
-0.279816
-0.250835
-0.221227
-0.191952
-0.163669
-0.136944
-0.112178
-0.0895932
-0.0692835
-0.0512491
-0.0354119
-0.021646
-0.00980559
0.000525986
0.0110493
0.0239835
0.027365
-0.399041
-0.399262
-0.393865
-0.381015
-0.362623
-0.33951
-0.312668
-0.283201
-0.252273
-0.220975
-0.190265
-0.160901
-0.133463
-0.108325
-0.0856785
-0.0655846
-0.0480056
-0.0328367
-0.0199552
-0.00925786
-0.000515571
0.0071373
0.0146284
0.0154209
-0.408634
-0.410208
-0.405691
-0.392527
-0.373159
-0.34854
-0.319831
-0.288325
-0.255358
-0.222196
-0.189894
-0.159313
-0.131061
-0.105471
-0.0826617
-0.062637
-0.0453338
-0.0306585
-0.0185053
-0.00878171
-0.0013751
0.00393225
0.00715814
0.00623263
-0.419273
-0.422313
-0.418783
-0.405443
-0.385221
-0.359225
-0.32874
-0.295222
-0.260214
-0.225136
-0.191214
-0.159368
-0.130155
-0.103893
-0.0807291
-0.0606647
-0.0435843
-0.0293016
-0.0176245
-0.00840056
-0.00154487
0.00293861
0.00483633
0.00372896
-0.431075
-0.435627
-0.433051
-0.419566
-0.398631
-0.371433
-0.339324
-0.303923
-0.266956
-0.230032
-0.194432
-0.161165
-0.130937
-0.104103
-0.0807253
-0.0606687
-0.0437033
-0.0295619
-0.0179884
-0.00875961
-0.00172309
0.00324256
0.00610514
0.00635584
-0.443607
-0.45007
-0.448319
-0.434655
-0.41314
-0.384944
-0.351416
-0.314308
-0.275488
-0.236689
-0.199506
-0.165157
-0.134272
-0.107049
-0.0834547
-0.0633092
-0.0463261
-0.0321709
-0.020501
-0.0110004
-0.00340621
0.00260425
0.00709714
0.00973751
-0.455143
-0.465619
-0.464509
-0.450466
-0.428431
-0.399401
-0.364647
-0.325944
-0.28535
-0.245034
-0.206826
-0.171779
-0.140399
-0.112882
-0.0891512
-0.0689473
-0.0519045
-0.0376209
-0.0257062
-0.0157994
-0.00751508
-0.000487724
0.00498798
0.01008
-0.466549
-0.483966
-0.48194
-0.46686
-0.444166
-0.414309
-0.378342
-0.338116
-0.296117
-0.254779
-0.215813
-0.180257
-0.148603
-0.12095
-0.0971336
-0.0768213
-0.0595907
-0.0450062
-0.0326847
-0.0222565
-0.0128634
-0.00372037
0.00486108
0.0109966
-0.502082
-0.510802
-0.50132
-0.483795
-0.459913
-0.428961
-0.391597
-0.349917
-0.306728
-0.264483
-0.224906
-0.188995
-0.157144
-0.129374
-0.105453
-0.0849871
-0.0674911
-0.0524691
-0.0394287
-0.0276215
-0.0171074
-0.0081383
-0.000185964
0.00684287
-0.775538
-0.798055
-0.806571
-0.803124
-0.798493
-0.776955
-0.771989
-0.795565
-0.807007
-0.805377
-0.791386
-0.758451
-0.769339
-0.791175
-0.80501
-0.804973
-0.791758
-0.76034
-0.769221
-0.788729
-0.803411
-0.804587
-0.793112
-0.763739
-0.77095
-0.788762
-0.803314
-0.805569
-0.79497
-0.7669
-0.773804
-0.790272
-0.804541
-0.807635
-0.797826
-0.771388
-0.777477
-0.792434
-0.806551
-0.810315
-0.801636
-0.777382
-0.781714
-0.794735
-0.80886
-0.813257
-0.805938
-0.784108
-0.786161
-0.796763
-0.81113
-0.816158
-0.810187
-0.79068
-0.790362
-0.798232
-0.813091
-0.818745
-0.813885
-0.79637
-0.793816
-0.799022
-0.814517
-0.820791
-0.816628
-0.800684
-0.796114
-0.799031
-0.815257
-0.822146
-0.818151
-0.80334
-0.796995
-0.798141
-0.815232
-0.822741
-0.81836
-0.804275
-0.796338
-0.796356
-0.814389
-0.822587
-0.817275
-0.803755
-0.794202
-0.793533
-0.812781
-0.821786
-0.815081
-0.802297
-0.790705
-0.789822
-0.810465
-0.820493
-0.812045
-0.800495
-0.786005
-0.785571
-0.807615
-0.818853
-0.808458
-0.798945
-0.780465
-0.781018
-0.804603
-0.816969
-0.804723
-0.79889
-0.77465
-0.776445
-0.801893
-0.81499
-0.801596
-0.802032
-0.76917
-0.77228
-0.799945
-0.813263
-0.800281
-0.809851
-0.764564
-0.768882
-0.798566
-0.812591
-0.802054
-0.823648
-0.760827
-0.766048
-0.797297
-0.813712
-0.807867
-0.84413
-0.756917
-0.763137
-0.796545
-0.816464
-0.819385
-0.87718
-0.75307
-0.761105
-0.797492
-0.822193
-0.838886
-0.943965
-0.611071
-0.546625
-0.522463
-0.501012
-0.475157
-0.442491
-0.403288
-0.359978
-0.315508
-0.272353
-0.232217
-0.196034
-0.164058
-0.136233
-0.112294
-0.0917892
-0.0741617
-0.0588846
-0.0454513
-0.0337025
-0.0234272
-0.0139281
-0.00472683
0.00357923
-0.647546
-0.577494
-0.543562
-0.517744
-0.489185
-0.453803
-0.412153
-0.366878
-0.320961
-0.276907
-0.236377
-0.200159
-0.168213
-0.140409
-0.116668
-0.0963298
-0.0788104
-0.0636064
-0.0503082
-0.0385445
-0.0279438
-0.0180601
-0.00827629
0.00108594
-0.664092
-0.601792
-0.563415
-0.53341
-0.500877
-0.461787
-0.41712
-0.369555
-0.322146
-0.277402
-0.236808
-0.200811
-0.168896
-0.141526
-0.118271
-0.0981973
-0.080904
-0.0658869
-0.0527266
-0.0410517
-0.0305088
-0.0206013
-0.0103578
-4.93081e-05
-0.680765
-0.623277
-0.581658
-0.546968
-0.509095
-0.465665
-0.417528
-0.367543
-0.318816
-0.273732
-0.23333
-0.197499
-0.166441
-0.139737
-0.116806
-0.0971267
-0.0801394
-0.065369
-0.0524012
-0.0408563
-0.0303481
-0.0202512
-0.00939772
0.00121231
-0.697919
-0.642838
-0.597676
-0.557055
-0.513297
-0.465063
-0.413253
-0.360926
-0.311245
-0.266263
-0.226259
-0.191029
-0.160664
-0.134671
-0.112303
-0.0930318
-0.0763625
-0.0618354
-0.0490295
-0.0375567
-0.0270257
-0.0167641
-0.00550489
0.00448137
-0.714144
-0.659946
-0.610433
-0.562934
-0.513295
-0.459964
-0.404475
-0.350092
-0.300036
-0.255648
-0.215941
-0.181342
-0.151844
-0.126556
-0.10476
-0.0859159
-0.0695515
-0.0552276
-0.0425401
-0.03114
-0.0207123
-0.0104809
0.000919501
0.0095119
-0.728922
-0.673904
-0.61917
-0.564699
-0.509018
-0.450471
-0.391557
-0.335665
-0.285888
-0.241618
-0.202425
-0.168896
-0.140269
-0.11565
-0.0943638
-0.0758843
-0.0597623
-0.0455985
-0.0330465
-0.0218263
-0.0116743
-0.00164786
0.00971291
0.016332
-0.741788
-0.68419
-0.623548
-0.562475
-0.500414
-0.436776
-0.374973
-0.31838
-0.268265
-0.224437
-0.186495
-0.154003
-0.126155
-0.10214
-0.0813028
-0.0631327
-0.0472214
-0.0332306
-0.0208871
-0.0099894
-0.000259335
0.00942715
0.0206532
0.0249347
-0.752118
-0.690373
-0.623571
-0.556088
-0.487389
-0.419065
-0.355028
-0.297984
-0.248125
-0.204975
-0.168182
-0.136714
-0.109664
-0.0862499
-0.0658452
-0.0479773
-0.0322936
-0.0185231
-0.00646154
0.00402673
0.0132298
0.0224945
0.0335759
0.0353292
-0.759291
-0.6923
-0.619418
-0.545184
-0.469893
-0.397562
-0.332054
-0.274621
-0.225351
-0.183414
-0.147746
-0.117282
-0.0910444
-0.0682501
-0.0483037
-0.0307772
-0.0153712
-0.0018735
0.00985815
0.0198994
0.0285369
0.0373724
0.0483556
0.0475656
-0.762849
-0.690182
-0.611071
-0.529465
-0.447963
-0.372384
-0.305887
-0.248822
-0.200366
-0.159675
-0.125251
-0.0958604
-0.070505
-0.0484117
-0.0290152
-0.0119249
0.00311857
0.0162881
0.0276764
0.0372846
0.0453877
0.0538499
0.0648475
0.0617259
-0.762606
-0.684457
-0.598076
-0.508681
-0.421699
-0.343703
-0.276666
-0.220287
-0.173218
-0.13392
-0.100829
-0.0726224
-0.0482754
-0.0270258
-0.00833205
0.00817514
0.0227386
0.0355157
0.0465668
0.0558163
0.0634873
0.0716751
0.0828249
0.0778667
-0.758672
-0.67537
-0.579849
-0.482662
-0.391095
-0.31141
-0.244547
-0.189258
-0.143772
-0.106106
-0.0745392
-0.0476971
-0.0245487
-0.0043477
0.0134322
0.0291549
0.0430706
0.0553471
0.066041
0.0750336
0.0824731
0.0905475
0.101968
0.0961751
-0.751362
-0.662677
-0.556122
-0.451337
-0.356118
-0.275465
-0.209336
-0.155664
-0.112059
-0.0762719
-0.0464554
-0.021201
0.000515939
0.0194214
0.0360287
0.0507044
0.063718
0.0752687
0.0854513
0.0941732
0.101519
0.109469
0.121011
0.11741
-0.740879
-0.64585
-0.526792
-0.414602
-0.316601
-0.235799
-0.17101
-0.119388
-0.0780197
-0.0444094
-0.0166114
0.00680132
0.0268336
0.0441816
0.0593366
0.0726554
0.0844103
0.0948183
0.10402
0.111977
0.118613
0.125158
0.135075
0.142675
-0.727196
-0.624039
-0.491424
-0.37218
-0.272307
-0.192201
-0.129427
-0.0803622
-0.0416362
-0.0105365
0.0149597
0.0362797
0.0543986
0.0699704
0.0834513
0.0951704
0.105374
0.114263
0.121957
0.128358
0.13331
0.138551
0.149605
0.159494
-0.709975
-0.595862
-0.449174
-0.32357
-0.222893
-0.144461
-0.0844655
-0.0385372
-0.00291858
0.0253035
0.0482173
0.0672144
0.0832502
0.096915
0.108632
0.118704
0.127361
0.134787
0.141062
0.145985
0.149542
0.154772
0.168426
0.17424
-0.688005
-0.559206
-0.398942
-0.268131
-0.16798
-0.0923744
-0.0360511
0.00605181
0.0380313
0.0629999
0.0830597
0.0995688
0.11339
0.125078
0.135021
0.143499
0.150732
0.156897
0.162051
0.165948
0.168747
0.174232
0.189159
0.191565
-0.659024
-0.511058
-0.339386
-0.205209
-0.107224
-0.0358242
0.015753
0.0532272
0.0810634
0.102406
0.119358
0.133208
0.144725
0.154401
0.162583
0.169526
0.175428
0.18045
0.184611
0.187627
0.189745
0.195134
0.210479
0.21089
-0.621067
-0.448007
-0.268996
-0.134176
-0.0403895
0.0251158
0.0707462
0.102796
0.125912
0.14327
0.15689
0.167938
0.177074
0.184715
0.191155
0.196615
0.201261
0.205224
0.208484
0.210708
0.212173
0.217256
0.232583
0.231709
-0.576032
-0.366516
-0.185612
-0.0541968
0.0325748
0.0902666
0.12861
0.154365
0.172224
0.185264
0.195349
0.203478
0.210174
0.215763
0.22048
0.224495
0.227935
0.230888
0.233291
0.234761
0.235584
0.240254
0.255335
0.253646
-0.529103
-0.259369
-0.0850751
0.0358437
0.111612
0.159129
0.188764
0.207386
0.2195
0.227943
0.234339
0.239469
0.243692
0.247231
0.250248
0.252858
0.255136
0.257126
0.258714
0.259475
0.259701
0.263926
0.278575
0.276304
-0.465172
-0.108672
0.037766
0.136258
0.195946
0.23068
0.250281
0.261074
0.267087
0.270762
0.273391
0.275494
0.277247
0.27876
0.280118
0.28137
0.282536
0.283607
0.284424
0.28453
0.284219
0.287992
0.302037
0.299378
-0.277984
0.0991387
0.181888
0.244586
0.283141
0.303131
0.311837
0.314427
0.314207
0.313094
0.311979
0.311096
0.310428
0.309973
0.309733
0.309688
0.309799
0.310006
0.310103
0.309615
0.308843
0.312175
0.325461
0.322562
1.28924
1.31276
1.33491
1.36546
1.36726
1.35106
1.28893
1.30935
1.32589
1.3437
1.30783
1.23195
1.28848
1.30474
1.31348
1.3191
1.26727
1.17015
1.28788
1.30072
1.30235
1.29799
1.24254
1.1459
1.28694
1.29735
1.29314
1.28087
1.22611
1.13783
1.28549
1.2938
1.28512
1.26705
1.21417
1.13572
1.28355
1.2896
1.27764
1.25561
1.20525
1.13611
1.28122
1.28471
1.27049
1.24588
1.19825
1.1364
1.27865
1.27936
1.26366
1.23747
1.19254
1.13681
1.27597
1.27385
1.25729
1.23019
1.18761
1.13681
1.27333
1.26853
1.25152
1.22393
1.18313
1.136
1.27083
1.26364
1.24651
1.21867
1.17895
1.13427
1.26854
1.25939
1.24232
1.2144
1.17499
1.13163
1.26651
1.2559
1.23903
1.21112
1.17127
1.12821
1.26473
1.25322
1.23663
1.20891
1.1679
1.1243
1.26319
1.25134
1.23509
1.20786
1.16501
1.12028
1.26186
1.2502
1.23435
1.20812
1.16276
1.11673
1.26071
1.24968
1.23429
1.20989
1.1614
1.11462
1.25974
1.2496
1.23482
1.21339
1.16132
1.11565
1.25894
1.24966
1.23578
1.2187
1.16288
1.12391
1.25832
1.24937
1.23685
1.2255
1.16571
1.14787
1.25775
1.24808
1.23757
1.23304
1.16996
1.19723
1.25709
1.24592
1.23794
1.24159
1.18172
1.26577
1.25655
1.2446
1.23909
1.25467
1.21304
1.34071
0.219951
0.310298
0.328754
0.354
0.369445
0.374106
0.371845
0.366324
0.360024
0.354283
0.349562
0.345807
0.342819
0.340488
0.338735
0.337472
0.336599
0.336003
0.335441
0.334428
0.333276
0.336191
0.348575
0.345548
0.530522
0.482231
0.459859
0.455991
0.45079
0.44125
0.428773
0.415696
0.40374
0.393698
0.385621
0.379176
0.374019
0.369938
0.366782
0.364396
0.362621
0.361293
0.360136
0.358674
0.357225
0.35975
0.371103
0.368023
0.715914
0.623361
0.572512
0.546219
0.524418
0.502821
0.481423
0.461671
0.444683
0.430794
0.419687
0.410794
0.403655
0.397982
0.393553
0.390155
0.38757
0.385587
0.383905
0.382066
0.380398
0.382551
0.392763
0.389681
0.825385
0.729879
0.664722
0.623253
0.589056
0.557816
0.529016
0.503625
0.482342
0.465126
0.451363
0.4403
0.431401
0.424313
0.41876
0.414471
0.411175
0.408617
0.406477
0.40433
0.402506
0.404299
0.41328
0.410235
0.901662
0.81072
0.738846
0.687582
0.644482
0.605835
0.571139
0.541172
0.516356
0.496356
0.48033
0.467398
0.456976
0.448668
0.442148
0.437096
0.433191
0.430136
0.427604
0.425208
0.423274
0.424704
0.432397
0.429434
0.95774
0.87115
0.797425
0.740253
0.69101
0.646878
0.607665
0.574124
0.546504
0.524251
0.506348
0.491854
0.480155
0.470826
0.463501
0.457815
0.453399
0.449923
0.447058
0.44446
0.442443
0.443495
0.449875
0.447065
0.997751
0.916354
0.843016
0.782544
0.729247
0.68121
0.638667
0.602443
0.572683
0.548668
0.529259
0.513499
0.500765
0.490611
0.48264
0.476445
0.471613
0.467784
0.464637
0.461875
0.459782
0.460421
0.465496
0.463001
1.02629
0.94976
0.877822
0.815751
0.759924
0.709227
0.66434
0.626193
0.594874
0.569535
0.548962
0.532215
0.518676
0.507886
0.499422
0.492835
0.487674
0.48356
0.480182
0.477293
0.475131
0.475332
0.479194
0.477222
1.04569
0.973744
0.903651
0.841055
0.783781
0.731378
0.684937
0.645497
0.613109
0.586826
0.5654
0.547926
0.533798
0.522549
0.513733
0.506864
0.501458
0.49712
0.493565
0.490591
0.488388
0.4882
0.490956
0.489423
1.05815
0.990134
0.921935
0.859466
0.801489
0.748095
0.700721
0.6605
0.62745
0.60055
0.578552
0.560588
0.54607
0.534526
0.525488
0.518435
0.512857
0.508356
0.50467
0.501645
0.499424
0.498894
0.500667
0.499536
1.06517
1.00028
0.933764
0.871792
0.813618
0.759766
0.711941
0.671347
0.637972
0.61074
0.588421
0.570185
0.555458
0.543768
0.534623
0.527474
0.521792
0.51718
0.513409
0.510362
0.508141
0.507323
0.508261
0.507483
1.06769
1.0051
0.939916
0.878642
0.820618
0.766709
0.718815
0.678178
0.644759
0.617445
0.595032
0.576721
0.561953
0.55025
0.541101
0.533935
0.528209
0.52354
0.519725
0.516683
0.514476
0.513432
0.513705
0.513221
1.0662
1.00519
0.940913
0.880443
0.822814
0.769165
0.721514
0.681113
0.647894
0.620723
0.598423
0.58022
0.565562
0.553967
0.544908
0.537794
0.532084
0.527409
0.523592
0.520578
0.518398
0.517193
0.51699
0.516732
1.06091
1.00084
0.937046
0.877446
0.820416
0.767297
0.72016
0.680244
0.647448
0.620635
0.598645
0.580717
0.566311
0.554936
0.546051
0.539058
0.53342
0.528788
0.52501
0.522047
0.519903
0.518605
0.518129
0.518033
1.05175
0.992085
0.928373
0.869733
0.813511
0.761187
0.714825
0.675635
0.643485
0.617241
0.595751
0.578265
0.564244
0.553195
0.544565
0.537755
0.532245
0.527707
0.524004
0.521107
0.519012
0.517714
0.517168
0.517126
1.03828
0.978696
0.914711
0.857219
0.802064
0.750834
0.705532
0.66733
0.636062
0.610605
0.589807
0.572925
0.559422
0.5488
0.540504
0.533943
0.528617
0.524221
0.520633
0.51782
0.515781
0.514553
0.514144
0.514089
1.01972
0.960177
0.895648
0.839658
0.785936
0.736169
0.692265
0.655355
0.625235
0.600797
0.580892
0.56478
0.551927
0.541834
0.533949
0.5277
0.522615
0.518411
0.514973
0.512262
0.510287
0.5092
0.50913
0.508984
0.994811
0.935711
0.870521
0.816648
0.7649
0.717078
0.674988
0.639731
0.611066
0.587902
0.569102
0.553933
0.541864
0.532401
0.525007
0.519136
0.514348
0.510383
0.50713
0.504536
0.502633
0.501755
0.502213
0.5019
0.96148
0.904057
0.838396
0.787626
0.738647
0.693418
0.653671
0.620499
0.593642
0.572031
0.554563
0.540513
0.529363
0.520633
0.513811
0.508384
0.503947
0.500266
0.497231
0.494769
0.492945
0.492338
0.493497
0.492947
0.916063
0.863327
0.798025
0.751893
0.706813
0.665051
0.628315
0.597747
0.573091
0.553335
0.537432
0.524679
0.514582
0.506689
0.500519
0.495599
0.491565
0.48821
0.485426
0.483111
0.481375
0.481092
0.483101
0.48225
0.853121
0.810592
0.747774
0.708643
0.669056
0.631896
0.598994
0.571633
0.54961
0.532022
0.517915
0.506629
0.497715
0.490755
0.485311
0.480959
0.477378
0.474389
0.471883
0.469733
0.468093
0.468179
0.471166
0.469965
0.765545
0.741472
0.685617
0.657099
0.625182
0.594044
0.565936
0.54243
0.523481
0.508366
0.496267
0.486604
0.478986
0.473046
0.468396
0.464665
0.46158
0.458992
0.45679
0.454821
0.453292
0.453796
0.457874
0.456256
0.637612
0.649708
0.609522
0.596941
0.575416
0.551917
0.529614
0.510579
0.495095
0.482714
0.472799
0.464883
0.458652
0.453801
0.45
0.446935
0.444382
0.442222
0.440347
0.438578
0.437177
0.438138
0.443404
0.441283
0.423318
0.529924
0.520022
0.529216
0.52083
0.50648
0.490813
0.476696
0.464949
0.455478
0.447864
0.441777
0.436993
0.433277
0.430362
0.427994
0.425996
0.424279
0.422742
0.421175
0.419878
0.421245
0.427784
0.425417
)
;

boundaryField
{
    rotor
    {
        type            zeroGradient;
    }
    freestream
    {
        type            freestreamPressure;
        freestreamValue uniform 0;
        supersonic      false;
        value           nonuniform List<scalar> 
96
(
0.365499
0.341677
0.317533
0.293086
0.268919
0.245388
0.222751
0.201228
0.181007
0.162251
0.145128
0.129909
0.117332
0.109031
0.0917793
0.0760619
0.063587
0.0529902
0.0436768
0.0354592
0.0282485
0.0219904
0.0166493
0.0122111
0.0086935
0.00609707
0.00430826
0.00310595
0.00237222
0.00201918
0.00161681
0.0010873
0.000751366
0.000506622
0.000333216
0.000325313
0.000341141
0.000151975
6.35464e-07
0.00017737
0.000326743
0.000241413
0.000207637
0.000447698
0.000805494
0.000942206
0.00115233
0.000810161
0.000478475
0.000164117
-8.3831e-06
0.00023072
0.000950287
0.00223697
0.00424102
0.00711914
0.0110436
0.0162105
0.0228397
0.0311537
0.0414363
0.0542501
0.0704157
0.0837505
0.0972327
0.113274
0.131659
0.152182
0.174644
0.198766
0.224275
0.250852
0.278129
0.305695
0.333114
0.359938
0.385733
0.410089
0.432674
0.453266
0.471386
0.486794
0.499259
0.508612
0.514737
0.517584
0.517121
0.513423
0.506584
0.496752
0.484122
0.468932
0.451465
0.432026
0.410928
0.388677
)
;
    }
    frontAndBack
    {
        type            empty;
    }
}


// ************************************************************************* //
