/*--------------------------------*- C++ -*----------------------------------*\
  =========                 |
  \\      /  F ield         | OpenFOAM: The Open Source CFD Toolbox
   \\    /   O peration     | Website:  https://openfoam.org
    \\  /    A nd           | Version:  11
     \\/     M anipulation  |
\*---------------------------------------------------------------------------*/
FoamFile
{
    format      ascii;
    class       surfaceScalarField;
    location    "0.1";
    object      phi;
}
// * * * * * * * * * * * * * * * * * * * * * * * * * * * * * * * * * * * * * //

dimensions      [0 3 -1 0 0 0 0];

internalField   nonuniform List<scalar> 
5640
(
9.27768e-07
-9.27768e-07
1.91737e-06
-9.89603e-07
2.83942e-06
-9.22047e-07
3.68193e-06
-8.42509e-07
3.15136e-06
5.30565e-07
5.91275e-06
-2.76139e-06
1.05158e-06
-1.97935e-06
1.91115e-06
-1.84917e-06
2.53593e-06
-1.54683e-06
2.70586e-06
-1.01243e-06
4.60166e-07
2.77626e-06
1.09302e-05
-4.55733e-06
9.84255e-07
-2.9636e-06
1.63583e-06
-2.50075e-06
1.91534e-06
-1.82634e-06
1.24139e-06
-3.38483e-07
-1.41379e-06
5.43143e-06
1.48896e-05
-5.37316e-06
8.85277e-07
-3.84888e-06
1.30744e-06
-2.92291e-06
1.21722e-06
-1.73612e-06
-4.76837e-08
9.26419e-07
-2.75979e-06
8.14354e-06
1.78607e-05
-5.7309e-06
6.98354e-07
-4.54723e-06
9.35635e-07
-3.16019e-06
5.25578e-07
-1.32606e-06
-1.05496e-06
2.50696e-06
-3.54178e-06
1.06304e-05
2.00489e-05
-5.73e-06
5.16489e-07
-5.06372e-06
5.72683e-07
-3.21639e-06
-7.45932e-08
-6.78784e-07
-1.7209e-06
4.15327e-06
-3.87517e-06
1.27846e-05
2.16413e-05
-5.46751e-06
3.50182e-07
-5.41391e-06
2.49104e-07
-3.11531e-06
-5.20184e-07
9.05032e-08
-2.10265e-06
5.73573e-06
-3.88763e-06
1.45696e-05
2.27729e-05
-5.01928e-06
2.02013e-07
-5.61592e-06
-2.10495e-08
-2.89225e-06
-8.42751e-07
9.12204e-07
-2.25912e-06
7.1521e-06
-3.66979e-06
1.59803e-05
2.35402e-05
-4.43706e-06
7.22866e-08
-5.68821e-06
-2.32617e-07
-2.58734e-06
-1.03977e-06
1.71936e-06
-2.23946e-06
8.35179e-06
-3.28644e-06
1.70273e-05
2.40069e-05
-3.75314e-06
-3.39417e-08
-5.65426e-06
-3.8598e-07
-2.2353e-06
-1.12756e-06
2.46095e-06
-2.08411e-06
9.30834e-06
-2.7855e-06
1.77286e-05
2.42114e-05
-2.99001e-06
-1.15437e-07
-5.53883e-06
-4.86369e-07
-1.86437e-06
-1.12543e-06
3.10001e-06
-1.82656e-06
1.00095e-05
-2.20333e-06
1.81054e-05
2.41746e-05
-2.16652e-06
-1.81126e-07
-5.3577e-06
-5.41501e-07
-1.504e-06
-1.05247e-06
3.61098e-06
-1.49473e-06
1.04517e-05
-1.56756e-06
1.81782e-05
2.39065e-05
-1.29942e-06
-2.32176e-07
-5.12553e-06
-5.59986e-07
-1.17619e-06
-9.26378e-07
3.97737e-06
-1.11239e-06
1.06377e-05
-8.98905e-07
1.79648e-05
2.34123e-05
-4.04776e-07
-2.72182e-07
-4.85334e-06
-5.51162e-07
-8.97207e-07
-7.63717e-07
4.18993e-06
-7.01243e-07
1.05753e-05
-2.15173e-07
1.74787e-05
2.26926e-05
5.04568e-07
-3.0538e-07
-4.54796e-06
-5.24897e-07
-6.77691e-07
-5.80553e-07
4.24558e-06
-2.80126e-07
1.02748e-05
4.66647e-07
1.67319e-05
2.1742e-05
1.41721e-06
-3.36154e-07
-4.21181e-06
-4.91285e-07
-5.22559e-07
-3.92216e-07
4.14651e-06
1.34337e-07
9.74828e-06
1.13274e-06
1.57335e-05
2.05544e-05
2.32034e-06
-3.68646e-07
-3.84316e-06
-4.60295e-07
-4.30911e-07
-2.13466e-07
3.89968e-06
5.24494e-07
9.01032e-06
1.76723e-06
1.44908e-05
1.91215e-05
3.2002e-06
-4.06317e-07
-3.43685e-06
-4.41431e-07
-3.95798e-07
-5.71798e-08
3.51543e-06
8.75101e-07
8.07804e-06
2.35293e-06
1.30129e-05
1.74321e-05
4.04229e-06
-4.51386e-07
-2.98546e-06
-4.4339e-07
-4.03793e-07
5.4848e-08
3.01719e-06
1.16714e-06
6.96574e-06
2.86974e-06
1.13103e-05
1.54693e-05
4.8326e-06
-5.04075e-07
-2.48138e-06
-4.73312e-07
-4.34557e-07
1.14899e-07
2.42898e-06
1.38082e-06
5.69982e-06
3.29634e-06
9.39483e-06
1.32081e-05
5.55747e-06
-5.61422e-07
-1.91996e-06
-5.37121e-07
-4.58858e-07
1.0899e-07
1.78287e-06
1.4948e-06
4.31401e-06
3.60601e-06
7.28361e-06
1.0617e-05
6.19714e-06
-6.16716e-07
-1.30325e-06
-6.41215e-07
-4.34359e-07
2.64966e-08
1.11516e-06
1.48562e-06
2.85489e-06
3.75582e-06
5.01342e-06
7.63209e-06
6.74071e-06
-6.6818e-07
-6.35066e-07
-7.92097e-07
-3.10442e-07
-1.58973e-07
4.82037e-07
1.31727e-06
1.37865e-06
3.72767e-06
2.60302e-06
4.11733e-06
7.24243e-06
-6.35066e-07
-9.45508e-07
-4.63471e-07
9.15178e-07
3.5182e-06
7.63553e-06
-3.61599e-06
3.26448e-05
-3.17902e-05
-6.85489e-06
3.26049e-05
-2.9366e-05
-9.50488e-06
2.91877e-05
-2.65377e-05
-1.18914e-05
2.60012e-05
-2.36148e-05
-1.4124e-05
2.35081e-05
-2.12755e-05
-1.6279e-05
2.16042e-05
-1.94492e-05
-1.83914e-05
2.00644e-05
-1.7952e-05
-2.04773e-05
1.87243e-05
-1.66385e-05
-2.25437e-05
1.74925e-05
-1.54261e-05
-2.45939e-05
1.63201e-05
-1.42699e-05
-2.66293e-05
1.51825e-05
-1.31471e-05
-2.86499e-05
1.40662e-05
-1.20456e-05
-3.06549e-05
1.29623e-05
-1.09572e-05
-3.26435e-05
1.1864e-05
-9.87546e-06
-3.46143e-05
1.07665e-05
-8.79568e-06
-3.65661e-05
9.66727e-06
-7.71548e-06
-3.84972e-05
8.566e-06
-6.63494e-06
-4.04055e-05
7.46429e-06
-5.55596e-06
-4.22889e-05
6.36426e-06
-4.48084e-06
-4.41453e-05
5.26714e-06
-3.41075e-06
-4.59728e-05
4.17221e-06
-2.34473e-06
-4.77695e-05
3.07703e-06
-1.28034e-06
-4.95332e-05
1.98212e-06
-2.18441e-07
9.54677e-07
7.96493e-07
-5.40085e-06
3.34884e-05
-7.24657e-06
3.44506e-05
-9.32408e-06
3.12652e-05
-1.13972e-05
2.80744e-05
-1.3415e-05
2.55259e-05
-1.53993e-05
2.35885e-05
-1.73627e-05
2.20278e-05
-1.93118e-05
2.06734e-05
-2.12494e-05
1.94301e-05
-2.31768e-05
1.82475e-05
-2.50939e-05
1.70996e-05
-2.70001e-05
1.59724e-05
-2.88942e-05
1.48564e-05
-3.0775e-05
1.37448e-05
-3.26411e-05
1.26326e-05
-3.4491e-05
1.15171e-05
-3.63228e-05
1.03978e-05
-3.81343e-05
9.27579e-06
-3.9923e-05
8.15303e-06
-4.16867e-05
7.03077e-06
-4.3423e-05
5.9085e-06
-4.513e-05
4.78403e-06
-4.68052e-05
3.65742e-06
2.61629e-06
-6.18392e-06
3.42991e-05
-7.41691e-06
3.56836e-05
-9.0491e-06
3.28974e-05
-1.08167e-05
2.9842e-05
-1.26158e-05
2.7325e-05
-1.4423e-05
2.53957e-05
-1.62301e-05
2.38349e-05
-1.80349e-05
2.24783e-05
-1.98365e-05
2.12317e-05
-2.16336e-05
2.00446e-05
-2.34252e-05
1.88912e-05
-2.52098e-05
1.7757e-05
-2.69859e-05
1.66325e-05
-2.87519e-05
1.55108e-05
-3.05062e-05
1.43869e-05
-3.22471e-05
1.3258e-05
-3.39726e-05
1.21233e-05
-3.56804e-05
1.09836e-05
-3.73679e-05
9.84055e-06
-3.90325e-05
8.69536e-06
-4.06718e-05
7.54776e-06
-4.22837e-05
6.39592e-06
-4.3867e-05
5.24075e-06
4.18019e-06
-6.43696e-06
3.50052e-05
-7.32309e-06
3.65698e-05
-8.62843e-06
3.42027e-05
-1.01277e-05
3.13413e-05
-1.1716e-05
2.89133e-05
-1.33446e-05
2.70243e-05
-1.49911e-05
2.54814e-05
-1.66464e-05
2.41336e-05
-1.8306e-05
2.28913e-05
-1.99669e-05
2.17055e-05
-2.16269e-05
2.05511e-05
-2.32838e-05
1.94139e-05
-2.49357e-05
1.82844e-05
-2.65806e-05
1.71558e-05
-2.82169e-05
1.60232e-05
-2.98426e-05
1.48838e-05
-3.14558e-05
1.37365e-05
-3.3054e-05
1.25818e-05
-3.46346e-05
1.14211e-05
-3.61946e-05
1.02554e-05
-3.77317e-05
9.08484e-06
-3.92438e-05
7.90795e-06
-4.0729e-05
6.72597e-06
5.63704e-06
-6.34878e-06
3.5624e-05
-7.00045e-06
3.72214e-05
-8.04841e-06
3.52507e-05
-9.31658e-06
3.26094e-05
-1.07066e-05
3.03033e-05
-1.2159e-05
2.84767e-05
-1.36436e-05
2.6966e-05
-1.51462e-05
2.56361e-05
-1.66597e-05
2.44048e-05
-1.81798e-05
2.32256e-05
-1.97032e-05
2.20746e-05
-2.12273e-05
2.0938e-05
-2.27496e-05
1.98067e-05
-2.42681e-05
1.86743e-05
-2.5781e-05
1.75361e-05
-2.72863e-05
1.6389e-05
-2.87819e-05
1.5232e-05
-3.02652e-05
1.40652e-05
-3.17336e-05
1.28895e-05
-3.3184e-05
1.17058e-05
-3.46134e-05
1.05143e-05
-3.60191e-05
9.31368e-06
-3.73982e-05
8.105e-06
6.98499e-06
-5.99795e-06
3.61544e-05
-6.48151e-06
3.7705e-05
-7.31369e-06
3.60828e-05
-8.37765e-06
3.36734e-05
-9.58201e-06
3.15077e-05
-1.08629e-05
2.97576e-05
-1.21863e-05
2.82895e-05
-1.3535e-05
2.69848e-05
-1.49e-05
2.57698e-05
-1.62759e-05
2.46016e-05
-1.7659e-05
2.34576e-05
-1.9046e-05
2.2325e-05
-2.04344e-05
2.11951e-05
-2.1822e-05
2.00619e-05
-2.32068e-05
1.89209e-05
-2.45869e-05
1.77691e-05
-2.59601e-05
1.66052e-05
-2.73238e-05
1.5429e-05
-2.86753e-05
1.42409e-05
-3.00111e-05
1.30416e-05
-3.13279e-05
1.18311e-05
-3.26224e-05
1.06081e-05
-3.38904e-05
9.37303e-06
8.21976e-06
-5.44115e-06
3.65763e-05
-5.79078e-06
3.80546e-05
-6.43603e-06
3.67281e-05
-7.31471e-06
3.45521e-05
-8.3432e-06
3.25362e-05
-9.45722e-06
3.08716e-05
-1.0621e-05
2.94532e-05
-1.18155e-05
2.81793e-05
-1.30305e-05
2.69849e-05
-1.42601e-05
2.58311e-05
-1.54999e-05
2.46974e-05
-1.67465e-05
2.35716e-05
-1.79974e-05
2.2446e-05
-1.92501e-05
2.13147e-05
-2.05029e-05
2.01736e-05
-2.17536e-05
1.90198e-05
-2.30001e-05
1.78518e-05
-2.424e-05
1.66688e-05
-2.54701e-05
1.5471e-05
-2.66871e-05
1.42586e-05
-2.78872e-05
1.30312e-05
-2.90663e-05
1.17872e-05
-3.02194e-05
1.05262e-05
9.33713e-06
-4.72552e-06
3.68647e-05
-4.95214e-06
3.82813e-05
-5.42916e-06
3.72051e-05
-6.1361e-06
3.5259e-05
-6.99612e-06
3.33962e-05
-7.94684e-06
3.18223e-05
-8.95225e-06
3.04587e-05
-9.99264e-06
2.92197e-05
-1.10568e-05
2.8049e-05
-1.21383e-05
2.69126e-05
-1.32325e-05
2.57916e-05
-1.43362e-05
2.46753e-05
-1.54465e-05
2.35563e-05
-1.65612e-05
2.24294e-05
-1.76784e-05
2.12908e-05
-1.87961e-05
2.01376e-05
-1.99123e-05
1.89679e-05
-2.10243e-05
1.77809e-05
-2.21294e-05
1.65761e-05
-2.32237e-05
1.5353e-05
-2.43034e-05
1.41108e-05
-2.53638e-05
1.28476e-05
-2.63988e-05
1.15612e-05
1.03334e-05
-3.88657e-06
3.69982e-05
-3.98908e-06
3.83838e-05
-4.30791e-06
3.75239e-05
-4.85188e-06
3.5803e-05
-5.54865e-06
3.4093e-05
-6.33864e-06
3.26123e-05
-7.18666e-06
3.13067e-05
-8.07288e-06
3.01059e-05
-8.98548e-06
2.89616e-05
-9.9176e-06
2.78447e-05
-1.08647e-05
2.67387e-05
-1.18233e-05
2.56339e-05
-1.27907e-05
2.45237e-05
-1.37647e-05
2.34035e-05
-1.47434e-05
2.22695e-05
-1.5725e-05
2.11191e-05
-1.67074e-05
1.99503e-05
-1.76883e-05
1.87618e-05
-1.86646e-05
1.75524e-05
-1.9633e-05
1.63213e-05
-2.05891e-05
1.5067e-05
-2.1528e-05
1.37864e-05
-2.24422e-05
1.24754e-05
1.12053e-05
-2.94855e-06
3.69567e-05
-2.92172e-06
3.83569e-05
-3.08957e-06
3.76918e-05
-3.47302e-06
3.61864e-05
-4.00938e-06
3.46293e-05
-4.64041e-06
3.32433e-05
-5.3318e-06
3.19981e-05
-6.06364e-06
3.08377e-05
-6.82409e-06
2.97221e-05
-7.60603e-06
2.86267e-05
-8.40478e-06
2.75374e-05
-9.21689e-06
2.6446e-05
-1.00397e-05
2.53465e-05
-1.0871e-05
2.42348e-05
-1.1709e-05
2.31075e-05
-1.25519e-05
2.1962e-05
-1.33977e-05
2.07961e-05
-1.42442e-05
1.96083e-05
-1.50887e-05
1.83969e-05
-1.59278e-05
1.71604e-05
-1.67574e-05
1.58966e-05
-1.75723e-05
1.46013e-05
-1.83638e-05
1.32669e-05
1.19499e-05
-1.93624e-06
3.67264e-05
-1.76674e-06
3.81874e-05
-1.78373e-06
3.77088e-05
-2.00931e-06
3.6412e-05
-2.38697e-06
3.5007e-05
-2.86006e-06
3.37164e-05
-3.39523e-06
3.25332e-05
-3.97268e-06
3.14152e-05
-4.58073e-06
3.03301e-05
-5.21209e-06
2.9258e-05
-5.86199e-06
2.81873e-05
-6.52695e-06
2.71109e-05
-7.20429e-06
2.60239e-05
-7.89186e-06
2.49224e-05
-8.58777e-06
2.38034e-05
-9.29019e-06
2.26644e-05
-9.99726e-06
2.15032e-05
-1.07068e-05
2.03178e-05
-1.14163e-05
1.91064e-05
-1.21228e-05
1.78669e-05
-1.28227e-05
1.65965e-05
-1.35113e-05
1.52899e-05
-1.41782e-05
1.39338e-05
1.25636e-05
-8.67485e-07
3.62945e-05
-5.3902e-07
3.7859e-05
-4.01751e-07
3.75715e-05
-4.70203e-07
3.64805e-05
-6.8995e-07
3.52267e-05
-1.0056e-06
3.4032e-05
-1.38477e-06
3.29124e-05
-1.80806e-06
3.18385e-05
-2.26381e-06
3.07858e-05
-2.74472e-06
2.97389e-05
-3.24593e-06
2.86886e-05
-3.76393e-06
2.76289e-05
-4.29602e-06
2.65559e-05
-4.83996e-06
2.54663e-05
-5.39377e-06
2.43572e-05
-5.95554e-06
2.32262e-05
-6.52323e-06
2.20709e-05
-7.09457e-06
2.08892e-05
-7.66693e-06
1.96788e-05
-8.23733e-06
1.84373e-05
-8.80308e-06
1.71623e-05
-9.36187e-06
1.58487e-05
-9.90379e-06
1.44758e-05
1.30411e-05
2.44345e-07
3.56454e-05
7.47286e-07
3.7356e-05
1.04374e-06
3.72751e-05
1.13508e-06
3.63891e-05
1.0731e-06
3.52887e-05
9.15192e-07
3.41899e-05
6.9186e-07
3.31357e-05
4.22341e-07
3.2108e-05
1.18345e-07
3.10898e-05
-2.12829e-07
3.00701e-05
-5.66307e-07
2.9042e-05
-9.3857e-07
2.80012e-05
-1.32689e-06
2.69443e-05
-1.72899e-06
2.58684e-05
-2.14278e-06
2.4771e-05
-2.56619e-06
2.36496e-05
-2.99689e-06
2.25016e-05
-3.43219e-06
2.13245e-05
-3.86871e-06
2.01153e-05
-4.30215e-06
1.88707e-05
-4.72796e-06
1.75881e-05
-5.14735e-06
1.62681e-05
-5.57007e-06
1.48985e-05
1.3373e-05
1.3868e-06
3.47631e-05
2.07767e-06
3.66652e-05
2.54067e-06
3.68121e-05
2.79582e-06
3.6134e-05
2.89502e-06
3.51895e-05
2.89507e-06
3.41899e-05
2.8272e-06
3.32036e-05
2.71084e-06
3.22244e-05
2.55769e-06
3.1243e-05
2.37497e-06
3.02528e-05
2.16753e-06
2.92495e-05
1.93882e-06
2.82299e-05
1.6915e-06
2.71916e-05
1.42774e-06
2.61322e-05
1.14952e-06
2.50493e-05
8.58816e-07
2.39403e-05
5.57927e-07
2.28025e-05
2.49814e-07
2.16326e-05
-6.15402e-08
2.04266e-05
-3.70161e-07
1.91793e-05
-6.64718e-07
1.78827e-05
-9.20428e-07
1.65238e-05
-1.11853e-06
1.50966e-05
1.3672e-05
2.54821e-06
3.36321e-05
3.43954e-06
3.57738e-05
4.07931e-06
3.61723e-05
4.50245e-06
3.57108e-05
4.76794e-06
3.4924e-05
4.92644e-06
3.40314e-05
5.01381e-06
3.31162e-05
5.05e-06
3.21882e-05
5.04658e-06
3.12464e-05
5.01072e-06
3.02887e-05
4.94716e-06
2.9313e-05
4.85924e-06
2.83178e-05
4.74943e-06
2.73014e-05
4.61961e-06
2.6262e-05
4.47131e-06
2.51976e-05
4.30585e-06
2.41057e-05
4.12464e-06
2.29837e-05
3.92949e-06
2.18277e-05
3.72319e-06
2.06329e-05
3.51047e-06
1.93921e-05
3.29921e-06
1.80939e-05
3.09911e-06
1.67239e-05
2.91966e-06
1.5276e-05
1.37786e-05
3.71507e-06
3.22374e-05
4.82176e-06
3.46671e-05
5.6496e-06
3.53445e-05
6.2474e-06
3.5113e-05
6.68253e-06
3.44889e-05
7.00114e-06
3.37128e-05
7.24433e-06
3.28731e-05
7.43268e-06
3.19998e-05
7.57794e-06
3.11012e-05
7.68729e-06
3.01793e-05
7.76543e-06
2.92349e-05
7.81565e-06
2.82676e-05
7.8403e-06
2.72768e-05
7.84113e-06
2.62612e-05
7.81945e-06
2.52192e-05
7.77644e-06
2.41488e-05
7.71351e-06
2.30466e-05
7.63293e-06
2.19083e-05
7.53858e-06
2.07273e-05
7.43678e-06
1.94939e-05
7.33615e-06
1.81946e-05
7.24666e-06
1.68134e-05
7.18483e-06
1.53379e-05
1.3759e-05
4.87371e-06
3.05639e-05
6.21183e-06
3.3329e-05
7.24401e-06
3.43123e-05
8.02559e-06
3.43314e-05
8.6284e-06
3.38861e-05
9.11111e-06
3.32301e-05
9.51167e-06
3.24725e-05
9.85224e-06
3.16592e-05
1.01453e-05
3.08081e-05
1.03984e-05
2.99262e-05
1.06164e-05
2.9017e-05
1.08025e-05
2.80814e-05
1.09594e-05
2.71199e-05
1.10888e-05
2.61318e-05
1.11923e-05
2.51157e-05
1.12713e-05
2.40697e-05
1.13279e-05
2.299e-05
1.1365e-05
2.18713e-05
1.13872e-05
2.0705e-05
1.14018e-05
1.94793e-05
1.14176e-05
1.81788e-05
1.14457e-05
1.67852e-05
1.15046e-05
1.5279e-05
1.36394e-05
6.00804e-06
2.85981e-05
7.59315e-06
3.17439e-05
8.8412e-06
3.30642e-05
9.81842e-06
3.33542e-05
1.06006e-05
3.31039e-05
1.12504e-05
3.25803e-05
1.18096e-05
3.19133e-05
1.23026e-05
3.11663e-05
1.27429e-05
3.03677e-05
1.31386e-05
2.95305e-05
1.34949e-05
2.86607e-05
1.38153e-05
2.7761e-05
1.41028e-05
2.68325e-05
1.43595e-05
2.5875e-05
1.45875e-05
2.48877e-05
1.47888e-05
2.38683e-05
1.4966e-05
2.28129e-05
1.51223e-05
2.17149e-05
1.52626e-05
2.05647e-05
1.53935e-05
1.93484e-05
1.55231e-05
1.80492e-05
1.56618e-05
1.66465e-05
1.58267e-05
1.51142e-05
1.34208e-05
7.09907e-06
2.63317e-05
8.94622e-06
2.98968e-05
1.04317e-05
3.15788e-05
1.16203e-05
3.21655e-05
1.25905e-05
3.21338e-05
1.34121e-05
3.17587e-05
1.4132e-05
3.11933e-05
1.4778e-05
3.05203e-05
1.53653e-05
2.97804e-05
1.59029e-05
2.89929e-05
1.63966e-05
2.81671e-05
1.68503e-05
2.73073e-05
1.72674e-05
2.64154e-05
1.76507e-05
2.54918e-05
1.80027e-05
2.45357e-05
1.83262e-05
2.35448e-05
1.8624e-05
2.25151e-05
1.88996e-05
2.14394e-05
1.9157e-05
2.03072e-05
1.94019e-05
1.91036e-05
1.96412e-05
1.781e-05
1.98839e-05
1.64037e-05
2.01464e-05
1.48518e-05
1.31093e-05
8.12257e-06
2.37666e-05
1.02433e-05
2.7776e-05
1.199e-05
2.98321e-05
1.34128e-05
3.07427e-05
1.45865e-05
3.096e-05
1.5588e-05
3.07572e-05
1.64723e-05
3.0309e-05
1.72724e-05
2.97202e-05
1.80069e-05
2.90459e-05
1.86864e-05
2.83135e-05
1.93173e-05
2.75361e-05
1.99044e-05
2.67202e-05
2.04511e-05
2.58686e-05
2.09609e-05
2.4982e-05
2.14368e-05
2.40598e-05
2.18821e-05
2.30996e-05
2.22999e-05
2.20972e-05
2.26935e-05
2.10458e-05
2.30661e-05
1.99346e-05
2.34218e-05
1.87479e-05
2.37661e-05
1.74657e-05
2.41067e-05
1.60631e-05
2.44588e-05
1.44996e-05
1.27142e-05
9.04649e-06
2.09172e-05
1.1447e-05
2.53756e-05
1.34827e-05
2.77964e-05
1.51704e-05
2.90551e-05
1.65718e-05
2.95586e-05
1.77675e-05
2.95615e-05
1.88227e-05
2.92537e-05
1.97796e-05
2.87633e-05
2.06621e-05
2.81634e-05
2.14838e-05
2.74918e-05
2.22528e-05
2.67671e-05
2.29743e-05
2.59987e-05
2.36523e-05
2.51906e-05
2.42901e-05
2.43442e-05
2.48911e-05
2.34588e-05
2.54586e-05
2.25321e-05
2.5996e-05
2.15598e-05
2.65064e-05
2.05354e-05
2.69922e-05
1.94489e-05
2.74556e-05
1.82844e-05
2.79003e-05
1.7021e-05
2.83325e-05
1.56309e-05
2.87656e-05
1.40664e-05
1.22471e-05
9.84234e-06
1.78156e-05
1.25215e-05
2.26964e-05
1.48728e-05
2.54451e-05
1.68643e-05
2.70636e-05
1.85282e-05
2.78947e-05
1.99394e-05
2.81503e-05
2.11754e-05
2.80177e-05
2.22925e-05
2.76463e-05
2.33239e-05
2.7132e-05
2.42884e-05
2.65272e-05
2.51967e-05
2.58588e-05
2.60551e-05
2.51403e-05
2.68677e-05
2.4378e-05
2.76376e-05
2.35743e-05
2.83676e-05
2.27288e-05
2.90604e-05
2.18392e-05
2.97191e-05
2.09011e-05
3.03467e-05
1.99079e-05
3.09448e-05
1.88507e-05
3.15141e-05
1.77151e-05
3.20556e-05
1.64795e-05
3.25729e-05
1.51135e-05
3.30776e-05
1.35618e-05
1.17218e-05
1.04875e-05
1.45705e-05
1.34296e-05
1.97543e-05
1.60978e-05
2.27769e-05
1.84252e-05
2.47363e-05
2.04061e-05
2.59138e-05
2.20773e-05
2.64791e-05
2.35173e-05
2.65777e-05
2.48027e-05
2.63609e-05
2.59843e-05
2.59504e-05
2.70912e-05
2.54203e-05
2.81394e-05
2.48107e-05
2.91372e-05
2.41424e-05
3.00894e-05
2.34259e-05
3.09981e-05
2.26655e-05
3.1865e-05
2.1862e-05
3.2691e-05
2.10132e-05
3.34775e-05
2.01145e-05
3.42263e-05
1.9159e-05
3.4939e-05
1.8138e-05
3.56149e-05
1.70393e-05
3.62519e-05
1.58426e-05
3.68495e-05
1.45159e-05
3.74157e-05
1.29957e-05
1.11537e-05
1.07982e-05
1.14078e-05
1.41551e-05
1.63974e-05
1.71683e-05
1.97637e-05
1.9832e-05
2.20726e-05
2.21516e-05
2.35942e-05
2.41375e-05
2.44931e-05
2.58175e-05
2.48978e-05
2.72892e-05
2.48892e-05
2.86265e-05
2.46131e-05
2.98755e-05
2.41713e-05
3.10626e-05
2.36235e-05
3.22012e-05
2.30038e-05
3.32974e-05
2.23297e-05
3.43533e-05
2.16097e-05
3.53685e-05
2.08468e-05
3.63414e-05
2.00404e-05
3.72699e-05
1.9186e-05
3.81524e-05
1.82765e-05
3.89886e-05
1.73019e-05
3.97774e-05
1.62504e-05
4.05145e-05
1.51054e-05
4.1194e-05
1.38364e-05
4.18159e-05
1.23738e-05
1.05579e-05
7.54578e-08
-7.54578e-08
4.09824e-07
-3.34366e-07
9.6418e-07
-5.54356e-07
1.7558e-06
-7.91618e-07
2.72082e-06
-9.6502e-07
-1.27162e-06
3.99243e-06
1.76429e-07
-2.51887e-07
5.30916e-07
-6.88853e-07
1.05236e-06
-1.0758e-06
1.7137e-06
-1.45296e-06
2.4694e-06
-1.72071e-06
-1.84546e-06
3.04324e-06
2.17252e-07
-4.69138e-07
5.56735e-07
-1.02834e-06
1.01645e-06
-1.53551e-06
1.55354e-06
-1.99005e-06
2.12321e-06
-2.29039e-06
-2.29286e-06
2.57061e-06
2.39189e-07
-7.08327e-07
5.45817e-07
-1.33496e-06
9.31841e-07
-1.92154e-06
1.35916e-06
-2.41737e-06
1.79933e-06
-2.73056e-06
-2.7164e-06
2.22287e-06
2.42614e-07
-9.50941e-07
5.05223e-07
-1.59757e-06
8.17231e-07
-2.23354e-06
1.14733e-06
-2.74747e-06
1.48695e-06
-3.07018e-06
-3.09501e-06
1.86557e-06
2.24294e-07
-1.17523e-06
4.41745e-07
-1.81503e-06
6.82374e-07
-2.47417e-06
9.23954e-07
-2.98905e-06
1.17321e-06
-3.31943e-06
-3.40255e-06
1.48074e-06
1.90994e-07
-1.36623e-06
3.6237e-07
-1.9864e-06
5.34754e-07
-2.64656e-06
6.93974e-07
-3.14827e-06
8.56048e-07
-3.4815e-06
-3.62138e-06
1.07488e-06
1.4792e-07
-1.51415e-06
2.73078e-07
-2.11156e-06
3.80826e-07
-2.75431e-06
4.62915e-07
-3.23036e-06
5.39578e-07
-3.55817e-06
-3.74238e-06
6.60577e-07
9.94614e-08
-1.61361e-06
1.79047e-07
-2.19114e-06
2.26316e-07
-2.80157e-06
2.36598e-07
-3.24064e-06
2.30659e-07
-3.55223e-06
-3.76372e-06
2.51999e-07
4.91118e-08
-1.66272e-06
8.45996e-08
-2.22663e-06
7.62409e-08
-2.79322e-06
2.06517e-08
-3.18505e-06
-6.29319e-08
-3.46864e-06
-3.68939e-06
-1.37266e-07
-1.04316e-09
-1.66168e-06
-6.7315e-09
-2.22094e-06
-6.52055e-08
-2.73474e-06
-1.79693e-07
-3.07057e-06
-3.3363e-07
-3.31471e-06
-3.52766e-06
-4.95356e-07
-4.74598e-08
-1.61422e-06
-9.21064e-08
-2.1763e-06
-1.94565e-07
-2.63228e-06
-3.59927e-07
-2.9052e-06
-5.74868e-07
-3.09977e-06
-3.28978e-06
-8.12746e-07
-8.98946e-08
-1.52432e-06
-1.6934e-07
-2.09685e-06
-3.09172e-07
-2.49245e-06
-5.16473e-07
-2.6979e-06
-7.81372e-07
-2.83487e-06
-2.98909e-06
-1.08207e-06
-1.26649e-07
-1.39768e-06
-2.36747e-07
-1.98675e-06
-4.07129e-07
-2.32207e-06
-6.46839e-07
-2.45819e-06
-9.49558e-07
-2.53215e-06
-2.64013e-06
-1.29851e-06
-1.56647e-07
-1.24103e-06
-2.93126e-07
-1.85027e-06
-4.87313e-07
-2.12788e-06
-7.49648e-07
-2.19586e-06
-1.07735e-06
-2.20444e-06
-2.25808e-06
-1.45941e-06
-1.78946e-07
-1.06208e-06
-3.37697e-07
-1.69152e-06
-5.49339e-07
-1.91624e-06
-8.24643e-07
-1.92055e-06
-1.16418e-06
-1.8649e-06
-1.85859e-06
-1.56366e-06
-1.92647e-07
-8.69436e-07
-3.70035e-07
-1.51414e-06
-5.93516e-07
-1.69276e-06
-8.72694e-07
-1.64138e-06
-1.21092e-06
-1.52667e-06
-1.45811e-06
-1.61141e-06
-1.96813e-07
-6.72623e-07
-3.89968e-07
-1.32098e-06
-6.20762e-07
-1.46197e-06
-8.9578e-07
-1.36636e-06
-1.22e-06
-1.20245e-06
-1.07403e-06
-1.60407e-06
-1.90351e-07
-4.82272e-07
-3.97447e-07
-1.11388e-06
-6.32478e-07
-1.22694e-06
-8.96961e-07
-1.10188e-06
-1.19561e-06
-9.038e-07
-7.25255e-07
-1.54439e-06
-1.71777e-07
-3.10495e-07
-3.92334e-07
-8.93327e-07
-6.30296e-07
-9.88973e-07
-8.8028e-07
-8.51891e-07
-1.14412e-06
-6.39961e-07
-4.32332e-07
-1.43704e-06
-1.39547e-07
-1.70948e-07
-3.74124e-07
-6.5875e-07
-6.15601e-07
-7.47495e-07
-8.50373e-07
-6.17119e-07
-1.07543e-06
-4.14902e-07
-2.16819e-07
-1.29094e-06
-1.06959e-07
-6.39886e-08
-3.4203e-07
-4.2368e-07
-5.88273e-07
-5.01252e-07
-8.10066e-07
-3.95326e-07
-1.00078e-06
-2.2419e-07
-9.57171e-08
-1.12188e-06
-6.5832e-08
1.84332e-09
-2.93665e-07
-1.95846e-07
-5.42351e-07
-2.52566e-07
-7.51061e-07
-1.86616e-07
-9.08386e-07
-6.6866e-08
-5.84592e-08
-9.45643e-07
1.84332e-09
-1.94003e-07
-4.46569e-07
-6.33185e-07
-7.00051e-07
-7.5851e-07
9.5789e-06
5.82138e-06
1.39316e-05
1.20447e-05
1.76286e-05
1.60668e-05
2.08422e-05
1.88589e-05
2.35889e-05
2.08475e-05
2.59534e-05
2.21287e-05
2.7983e-05
2.28682e-05
2.96959e-05
2.31763e-05
3.12089e-05
2.31001e-05
3.26049e-05
2.27752e-05
3.39304e-05
2.22981e-05
3.52089e-05
2.17253e-05
3.64513e-05
2.10872e-05
3.7661e-05
2.04e-05
3.88363e-05
1.96715e-05
3.99728e-05
1.89038e-05
4.10644e-05
1.80944e-05
4.21042e-05
1.72367e-05
4.30861e-05
1.632e-05
4.4006e-05
1.53305e-05
4.48591e-05
1.42524e-05
4.56351e-05
1.30604e-05
4.63219e-05
1.1687e-05
9.93913e-06
6.79797e-06
2.06665e-06
1.17954e-05
7.04723e-06
1.66814e-05
1.11807e-05
2.09266e-05
1.46137e-05
2.44453e-05
1.73288e-05
2.73453e-05
1.92287e-05
2.97766e-05
2.04368e-05
3.18585e-05
2.10944e-05
3.36347e-05
2.13239e-05
3.52055e-05
2.12044e-05
3.66754e-05
2.08282e-05
3.80928e-05
2.03079e-05
3.94803e-05
1.96998e-05
4.08455e-05
1.90348e-05
4.21876e-05
1.83294e-05
4.35009e-05
1.75905e-05
4.47761e-05
1.68192e-05
4.60013e-05
1.60114e-05
4.71637e-05
1.51576e-05
4.8251e-05
1.42433e-05
4.92534e-05
1.325e-05
5.01597e-05
1.21541e-05
5.09462e-05
1.09005e-05
9.27547e-06
4.95492e-06
-3.17659e-07
8.96635e-06
3.0358e-06
1.38611e-05
6.28602e-06
1.90301e-05
9.44459e-06
2.38416e-05
1.25174e-05
2.77958e-05
1.52745e-05
3.09382e-05
1.72944e-05
3.34915e-05
1.85412e-05
3.56335e-05
1.91819e-05
3.74998e-05
1.93381e-05
3.91677e-05
1.91602e-05
4.07366e-05
1.87391e-05
4.22696e-05
1.81668e-05
4.37891e-05
1.75154e-05
4.52981e-05
1.68204e-05
4.67919e-05
1.60967e-05
4.82607e-05
1.53505e-05
4.96903e-05
1.45818e-05
5.10634e-05
1.37844e-05
5.23609e-05
1.29458e-05
5.35631e-05
1.20477e-05
5.46519e-05
1.10653e-05
5.55972e-05
9.95514e-06
8.50882e-06
3.85413e-06
-1.94892e-06
6.74257e-06
1.47359e-07
1.06872e-05
2.34138e-06
1.54116e-05
4.72018e-06
2.06537e-05
7.2753e-06
2.59076e-05
1.00207e-05
3.04589e-05
1.27431e-05
3.40099e-05
1.49901e-05
3.67959e-05
1.63959e-05
3.90725e-05
1.70615e-05
4.10537e-05
1.7179e-05
4.28757e-05
1.69171e-05
4.46098e-05
1.64326e-05
4.63036e-05
1.58216e-05
4.7984e-05
1.514e-05
4.96582e-05
1.44226e-05
5.13203e-05
1.36884e-05
5.2957e-05
1.29451e-05
5.45508e-05
1.21907e-05
5.6081e-05
1.14155e-05
5.75237e-05
1.06051e-05
5.88511e-05
9.7379e-06
6.00383e-05
8.76798e-06
7.54999e-06
3.06289e-06
-3.14624e-06
5.13298e-06
-1.92274e-06
8.07168e-06
-5.97318e-07
1.18493e-05
9.4253e-07
1.63401e-05
2.78458e-06
2.14166e-05
4.94407e-06
2.67976e-05
7.36214e-06
3.1848e-05
9.93974e-06
3.59859e-05
1.2258e-05
3.91974e-05
1.385e-05
4.17873e-05
1.45891e-05
4.40199e-05
1.46845e-05
4.60596e-05
1.43928e-05
4.8006e-05
1.38752e-05
4.99098e-05
1.32362e-05
5.17926e-05
1.25397e-05
5.36608e-05
1.18202e-05
5.55074e-05
1.10985e-05
5.7321e-05
1.03771e-05
5.90849e-05
9.65161e-06
6.07763e-05
8.91368e-06
6.23642e-05
8.14997e-06
6.38557e-05
7.27652e-06
6.29378e-06
2.36675e-06
-4.03225e-06
3.86043e-06
-3.41642e-06
5.99401e-06
-2.73089e-06
8.8084e-06
-1.87186e-06
1.2315e-05
-7.22038e-07
1.64687e-05
7.9043e-07
2.11718e-05
2.659e-06
2.6301e-05
4.81048e-06
3.14667e-05
7.09234e-06
3.61375e-05
9.17925e-06
4.00086e-05
1.07181e-05
4.31577e-05
1.15354e-05
4.58401e-05
1.17103e-05
4.82547e-05
1.14606e-05
5.05236e-05
1.09674e-05
5.27057e-05
1.03576e-05
5.48279e-05
9.69801e-06
5.69067e-05
9.01978e-06
5.89422e-05
8.34151e-06
6.09328e-05
7.66105e-06
6.28709e-05
6.97562e-06
6.47367e-05
6.28417e-06
6.6512e-05
5.50112e-06
4.71338e-06
1.6996e-06
-4.65696e-06
2.75259e-06
-4.46941e-06
4.26501e-06
-4.24332e-06
6.27712e-06
-3.88397e-06
8.83513e-06
-3.28005e-06
1.19682e-05
-2.34266e-06
1.56628e-05
-1.03559e-06
1.98793e-05
5.93982e-07
2.45239e-05
2.44774e-06
2.93676e-05
4.33552e-06
3.40937e-05
5.992e-06
3.84237e-05
7.20537e-06
4.22372e-05
7.89694e-06
4.55803e-05
8.11744e-06
4.85634e-05
7.98432e-06
5.12958e-05
7.62518e-06
5.38582e-05
7.13557e-06
5.63014e-05
6.57659e-06
5.86595e-05
5.98336e-06
6.09512e-05
5.36941e-06
6.31762e-05
4.75059e-06
6.53286e-05
4.13178e-06
6.73671e-05
3.46267e-06
2.76797e-06
1.0521e-06
-5.04848e-06
1.74644e-06
-5.16375e-06
2.76869e-06
-5.26557e-06
4.14857e-06
-5.26385e-06
5.92528e-06
-5.05675e-06
8.1455e-06
-4.56288e-06
1.08477e-05
-3.73783e-06
1.40434e-05
-2.60163e-06
1.77316e-05
-1.24051e-06
2.18486e-05
2.18555e-07
2.62266e-05
1.61403e-06
3.06529e-05
2.77906e-06
3.49431e-05
3.60671e-06
3.89813e-05
4.07924e-06
4.27252e-05
4.2404e-06
4.61885e-05
4.16185e-06
4.94103e-05
3.91381e-06
5.24341e-05
3.55278e-06
5.52983e-05
3.11921e-06
5.80271e-05
2.64061e-06
6.06415e-05
2.1361e-06
6.31623e-05
1.61108e-06
6.55826e-05
1.04231e-06
3.6479e-07
4.33753e-07
-5.23024e-06
8.29975e-07
-5.55997e-06
1.46243e-06
-5.89802e-06
2.35517e-06
-6.15659e-06
3.53892e-06
-6.2405e-06
5.05629e-06
-6.08026e-06
6.95845e-06
-5.63999e-06
9.29008e-06
-4.93326e-06
1.2075e-05
-4.02539e-06
1.53075e-05
-3.01395e-06
1.89278e-05
-2.00632e-06
2.28169e-05
-1.11007e-06
2.68319e-05
-4.08289e-07
3.08462e-05
6.49364e-08
3.47697e-05
3.16956e-07
3.85518e-05
3.79718e-07
4.21731e-05
2.92567e-07
4.56332e-05
9.26061e-08
4.89418e-05
-1.89336e-07
5.2112e-05
-5.29608e-07
5.51611e-05
-9.13007e-07
5.81097e-05
-1.33751e-06
6.09887e-05
-1.83666e-06
-2.53513e-06
-1.41014e-07
-5.22649e-06
7.85028e-09
-5.70884e-06
3.3497e-07
-6.22514e-06
8.6261e-07
-6.68423e-06
1.61972e-06
-6.9976e-06
2.6445e-06
-7.10504e-06
3.98507e-06
-6.98056e-06
5.68984e-06
-6.63803e-06
7.79198e-06
-6.12753e-06
1.02987e-05
-5.52065e-06
1.31864e-05
-4.89405e-06
1.63951e-05
-4.31875e-06
1.9836e-05
-3.84916e-06
2.34155e-05
-3.51456e-06
2.70543e-05
-3.32186e-06
3.0694e-05
-3.25997e-06
3.42962e-05
-3.3097e-06
3.78393e-05
-3.45043e-06
4.13138e-05
-3.66391e-06
4.47205e-05
-3.9363e-06
4.80687e-05
-4.26117e-06
5.13765e-05
-4.64528e-06
5.4668e-05
-5.1282e-06
-5.8375e-06
-6.59199e-07
-5.06265e-06
-7.11196e-07
-5.65684e-06
-6.19207e-07
-6.31713e-06
-3.55915e-07
-6.94752e-06
1.07827e-07
-7.46135e-06
8.0742e-07
-7.80463e-06
1.78387e-06
-7.95702e-06
3.07709e-06
-7.93124e-06
4.71538e-06
-7.76583e-06
6.70743e-06
-7.51269e-06
9.03996e-06
-7.22659e-06
1.1678e-05
-6.95679e-06
1.45683e-05
-6.73942e-06
1.76507e-05
-6.59701e-06
2.08687e-05
-6.53982e-06
2.41754e-05
-6.56669e-06
2.7536e-05
-6.67029e-06
3.09272e-05
-6.84165e-06
3.43365e-05
-7.07317e-06
3.77612e-05
-7.36098e-06
4.12079e-05
-7.70796e-06
4.46908e-05
-8.12818e-06
4.82178e-05
-8.65514e-06
-9.36071e-06
-1.11083e-06
-4.76457e-06
-1.32185e-06
-5.44582e-06
-1.40551e-06
-6.23347e-06
-1.32746e-06
-7.02557e-06
-1.05676e-06
-7.73205e-06
-5.61031e-07
-8.30037e-06
1.92849e-07
-8.7109e-06
1.23382e-06
-8.97222e-06
2.58114e-06
-9.11314e-06
4.23952e-06
-9.17107e-06
6.19897e-06
-9.18603e-06
8.43528e-06
-9.19311e-06
1.09141e-05
-9.21824e-06
1.35969e-05
-9.27979e-06
1.64456e-05
-9.38853e-06
1.94268e-05
-9.54793e-06
2.25141e-05
-9.75761e-06
2.56886e-05
-1.00161e-05
2.89385e-05
-1.03231e-05
3.2259e-05
-1.06815e-05
3.56508e-05
-1.10998e-05
3.91166e-05
-1.15939e-05
4.26436e-05
-1.21822e-05
-1.28692e-05
-1.48944e-06
-4.3572e-06
-1.82273e-06
-5.11252e-06
-2.03198e-06
-6.02422e-06
-2.07729e-06
-6.98026e-06
-1.9259e-06
-7.88343e-06
-1.54852e-06
-8.67775e-06
-9.19168e-07
-9.34024e-06
-1.81034e-08
-9.87329e-06
1.16432e-06
-1.02956e-05
2.62885e-06
-1.06356e-05
4.36486e-06
-1.0922e-05
6.35301e-06
-1.11813e-05
8.56858e-06
-1.14338e-05
1.09846e-05
-1.16958e-05
1.35738e-05
-1.19778e-05
1.63118e-05
-1.22859e-05
1.91775e-05
-1.26233e-05
2.21542e-05
-1.29929e-05
2.52289e-05
-1.33977e-05
2.83909e-05
-1.38435e-05
3.16302e-05
-1.43391e-05
3.49332e-05
-1.4897e-05
3.82739e-05
-1.55229e-05
-1.61897e-05
-1.79139e-06
-3.86432e-06
-2.21481e-06
-4.6891e-06
-2.50841e-06
-5.73062e-06
-2.6276e-06
-6.86107e-06
-2.53913e-06
-7.9719e-06
-2.21693e-06
-8.99996e-06
-1.64134e-06
-9.91584e-06
-8.0024e-07
-1.07144e-05
3.10534e-07
-1.14063e-05
1.6864e-06
-1.20115e-05
3.31533e-06
-1.2551e-05
5.17971e-06
-1.30456e-05
7.25882e-06
-1.35129e-05
9.53078e-06
-1.39677e-05
1.19737e-05
-1.44207e-05
1.45674e-05
-1.48796e-05
1.72932e-05
-1.53491e-05
2.01337e-05
-1.58333e-05
2.30718e-05
-1.63359e-05
2.60891e-05
-1.68608e-05
2.91635e-05
-1.74134e-05
3.22668e-05
-1.80003e-05
3.5368e-05
-1.86241e-05
-1.92744e-05
-2.01575e-06
-3.30798e-06
-2.50091e-06
-4.20394e-06
-2.84405e-06
-5.38748e-06
-2.99637e-06
-6.70875e-06
-2.92496e-06
-8.04331e-06
-2.60674e-06
-9.31818e-06
-2.02706e-06
-1.04955e-05
-1.17959e-06
-1.15619e-05
-6.57988e-08
-1.25201e-05