/*--------------------------------*- C++ -*----------------------------------*  =========                 |
  \      /  F ield         | OpenFOAM: The Open Source CFD Toolbox
   \    /   O peration     | Website:  https://openfoam.org
    \  /    A nd           | Version:  11
     \/     M anipulation  |
\*---------------------------------------------------------------------------*/
FoamFile
{
    format      ascii;
    class       volScalarField;
    object      U;
}
// * * * * * * * * * * * * * * * * * * * * * * * * * * * * * * * * * * * * * //

dimensions      [0 1 -1 0 0 0 0];

internalField   nonuniform List<scalar> 
2880
( 
0.06195984500394322
0.19632872403082874
0.36422932940194375
0.4336507433357375
0.49776913434373815
0.3851667502142567
0.11734062981244904
0.28276817567936274
0.41796516535131706
0.47285978641140447
0.507897667416022
0.4395841946262763
0.15490683150014825
0.3132292849504433
0.4305841869465173
0.4726919731826457
0.5014226249282925
0.47907173708843565
0.18775503520578482
0.3383246627232596
0.43599438604492724
0.47988404019278974
0.5038422817472084
0.5021906866453411
0.22382455729891387
0.3594291390247095
0.44518875430990507
0.47976720899195113
0.5072472411395793
0.5229044433925017
0.2543914011686814
0.3737816891427934
0.45694460797357705
0.4954233121352426
0.5196884026209222
0.5425570978486222
0.28087131416254196
0.39506896680358095
0.45560049521093543
0.495803574445677
0.526253603591881
0.5569045426975633
0.302373802677688
0.40618493383520504
0.46714178958284347
0.5080084791750908
0.5413149564603003
0.5770622444701924
0.3218020662635699
0.4136813949026876
0.4695862981655111
0.5097026309203523
0.5470270552127183
0.5907986761484976
0.3421721149955793
0.4210409331215753
0.4842723907451919
0.5174440369001567
0.562924388508924
0.60564337873897
0.35055503613258615
0.42626673506967294
0.4866764416869186
0.5355542052195392
0.5714775313244731
0.6235037463931985
0.35946902130305125
0.4292427295588318
0.49187041757538896
0.5479116272915452
0.5920960996264757
0.6417212386774189
0.36085818957561316
0.42697722853806347
0.5009147312580942
0.5522390494864271
0.6095696942326345
0.6655694976617827
0.35755382797845026
0.4278256316212823
0.49528581583606257
0.5652731080493993
0.626328660261599
0.685071436412402
0.34776557786008755
0.42357019310351207
0.5011250564617098
0.5761628373717036
0.6509285152996411
0.7109735559602796
0.33596403233524375
0.4180001066102079
0.5066546907147063
0.5906372127675623
0.6612482113719916
0.7313471176537685
0.32364722735644746
0.4136230882510007
0.5125591812530823
0.5892007125498961
0.6836045941107065
0.762539112381655
0.3004654479885728
0.4030766299090831
0.5071327137334318
0.6046075074831072
0.6927348930547029
0.7891665965055035
0.27612498692872134
0.394707180318013
0.5014510496990636
0.6052448327023321
0.7120517882317142
0.819887552086617
0.24981576603523642
0.3797540409033507
0.49204484278810035
0.6098814715825625
0.7202491291170279
0.8417612706188453
0.21466242736520993
0.35862205846865414
0.48532333609137
0.605881979713897
0.7265785329499455
0.8774898917733349
0.17532407211113243
0.3282710534832066
0.46058638109319294
0.5910042658778729
0.7186017865036503
0.903985791481513
0.13331206467526371
0.2843611309719569
0.42367491890963604
0.5674464742446947
0.6971470445064327
0.9237562252613807
0.07110564620581736
0.19853754743560442
0.3405555958223546
0.5136076438207887
0.6135009301710206
0.9960233258405781
0.6150292164570277
0.7101982080681074
0.7502807076440473
0.7895868256118757
0.8203013325457629
0.8471119669903239
0.8735386897587988
0.892881492657591
0.9134137782131848
0.9333741176558729
0.9526203517028414
0.9647766925769585
0.9790844511206118
0.9873258210933706
0.996901025794407
1.0013320703490298
1.0050581232579334
1.0118224681426635
1.0111109572008732
1.0118969051561342
1.0159375101175778
1.014093064965866
1.0132618246463763
1.01180150778937
0.5935236509000318
0.7018630996002492
0.7526949195074663
0.7910894839856737
0.8246525387131521
0.8531364133717754
0.8770271985750697
0.9035751156337752
0.9202350382084779
0.9428311073101772
0.9554704069676272
0.9686441629610745
0.983062986236826
0.9897225838067467
1.003228589903418
1.006484164916009
1.0094853782139035
1.0110622530437487
1.0133068869895572
1.013020133320141
1.0155808411006662
1.0139137145960007
1.0124329120735325
1.010441207094446
0.5831512461983883
0.6967566295408962
0.74652699661593
0.79692491123034
0.8319308282277773
0.8606844173973981
0.8860645890466481
0.9089167970774708
0.9355539019872243
0.9470730271124208
0.9652053301567991
0.9822618631822356
0.994164225655898
1.0005409622145744
1.0051801401251559
1.0094746337744627
1.0084081949665096
1.0141129879693622
1.0143143233706502
1.0160118965749978
1.0152231594498076
1.0147774308535107
1.0137706807216489
1.010297906194699
0.5837841497817109
0.6866178871975567
0.7449771516841628
0.7948327479961113
0.8368679396104916
0.8661261987376903
0.894264366277007
0.918059844838169
0.9379201126682757
0.9623172854679014
0.9748203754722864
0.9869434950879692
0.9923437427854032
1.0065324070326505
1.0101425444716488
1.011114179934807
1.0146759488064903
1.0182525567345184
1.0186530948950587
1.0180352117509435
1.0155727223561977
1.0139151462045142
1.0122754116594965
1.0083815382648678
0.5916975957420222
0.6821680150036787
0.7456500706175845
0.7964615955965463
0.835767028357392
0.8693215382133419
0.9023819102085466
0.9255731461535137
0.9569706696429875
0.9680552630510781
0.9810699508348945
0.9955021767174573
1.0016059005467524
1.0025955862173561
1.0118967447336336
1.0136859674768937
1.0156086400533015
1.0185428881444054
1.0191336695933897
1.0178257574511838
1.0164921839944203
1.0145017180471105
1.0098237531847192
1.0060941104354064
0.6028624882276163
0.6882109511974717
0.7469453265698051
0.8025326965751836
0.8412707074953351
0.8771517867812603
0.9080919233189373
0.9363588884515934
0.9578587548480427
0.9771258456638454
0.9869007349052361
1.000781049379494
1.005940264823108
1.0069092978957546
1.017543251606907
1.0163543845923337
1.0218978763656776
1.0192438716741785
1.0210470860732719
1.0189803641109902
1.018360993706285
1.013726517006816
1.0084950578509582
1.0041591337408258
0.6097000789393832
0.6931052584655373
0.7536035050798627
0.8008372877300695
0.8428683264059533
0.8805768676591093
0.9129850727692125
0.9469747637490322
0.9683800166754815
0.9843564467789043
0.992767507010271
1.0018958521379024
1.0129304226207752
1.016259630931193
1.021422018878341
1.0221397490940292
1.0237152843158617
1.0191538556705995
1.022839781062592
1.018084102644999
1.0168385868142344
1.0134420056553894
1.0080553602527975
1.0021820710121967
0.626715698815938
0.6958754673224975
0.757579136205549
0.8105473118558896
0.850615038900234
0.8957919300886579
0.9234646717023924
0.9568656543505172
0.973713824531762
0.989665964220365
1.0003399953050207
1.0067658432631779
1.0191508022448768
1.0241821847378831
1.021417540180769
1.0232172231822652
1.0263715831339522
1.0241109922334701
1.024265420963322
1.0205381183116013
1.0161863126468378
1.014071451369557
1.0076084207516653
1.0011315673355232
0.6433579289295558
0.706349812017689
0.7680923771458555
0.8170375995235315
0.8635745223077678
0.9009126063644592
0.9422037028292103
0.9649796963614767
0.9789296294485594
1.0034640418640324
1.0107383301702924
1.016140125432434
1.0214655697936974
1.0251006025460776
1.0254816139306229
1.027536663140003
1.0311121630197144
1.0286477420894016
1.0239002301457947
1.0210147536602008
1.0182139160088586
1.013851503020486
1.0066583914498861
0.9992839109977134
0.6577172380609217
0.7166511025518689
0.7836957416907269
0.8353605597882784
0.8799838779268377
0.9156516568779484
0.9491391083469122
0.9752243649595429
0.992237197874075
1.0057504757816116
1.014274711364323
1.0282405512757031
1.026744521035763
1.0298440297882598
1.0321712150205289
1.032498137235791
1.0316145711550713
1.0302494388260557
1.028463131156731
1.0243851509475115
1.0196905196264074
1.0150502961825512
1.0073535396447744
0.9987710260863151
0.6759060565655226
0.7420093402082198
0.7998121321209956
0.853597365096852
0.8980247455566719
0.9348828854569983
0.9696344518189475
0.9870307740976978
1.0003516574341502
1.0195060391871518
1.0252972525286825
1.031143040874938
1.0311359026592752
1.037693051784286
1.038901695983821
1.0365675957384763
1.0396747175029606
1.0351135990120646
1.03225429787169
1.0277061105389351
1.0233155276505679
1.0177605816089754
1.0089612839512285
0.999156943770674
0.6958912314406185
0.7620650369987565
0.8183582389185522
0.8757995886004534
0.9203083957569566
0.9564633508621495
0.9825946730979719
0.9987979725093273
1.0180132144830456
1.0242373074423998
1.0356971448411445
1.039633480322798
1.042437760914554
1.0446927992807553
1.047624487858986
1.04363460762383
1.0426165627309703
1.040781594264055
1.0361952193500423
1.032239941358767
1.0269915276101762
1.0203879399256566
1.0110899227224872
0.9996447868207737
0.7167794656984299
0.7830554519782641
0.8450812034163704
0.8970668535357833
0.9434309306553794
0.9791133942991237
0.9994325902906633
1.0191149805578625
1.0303914547310686
1.0334707604572062
1.0440278763704838
1.0501098422341077
1.056438916226724
1.0525298237707652
1.0524193512321864
1.0546428208497078
1.0485998375427918
1.0477871462347572
1.0423702697078399
1.0372806864510289
1.0310759456138558
1.0250182191095276
1.0128937980212742
1.00145447912881
0.7501731524224897
0.8057538458527989
0.8699416477270774
0.926050198126603
0.9697400907956327
0.9993734478606615
1.022596323908389
1.0320681813364692
1.046763170023003
1.055044876107898
1.0584549151174532
1.0612462586071287
1.0635906508022142
1.0650601128355286
1.0633689211998436
1.0616694592351386
1.0559136078485152
1.0538720787826226
1.0499113838989127
1.0444372034170715
1.0382081562765597
1.0286640930972202
1.016179621316706
1.002599185705322
0.7795622946460693
0.8391340816374862
0.9037659850966369
0.9541744774687935
0.9961506367995379
1.0230542241074476
1.040172784258647
1.0561336403342685
1.062120440739266
1.0692766114109467
1.0735926381731846
1.0759678753709647
1.0746369366924444
1.076351318283155
1.0741393475612284
1.0703764915003746
1.066501209174619
1.0621772684584811
1.058201025510278
1.0515353923371653
1.0439276421517794
1.0345707288724477
1.0198835367782317
1.0046079777368422
0.8068986224865784
0.8758937926281575
0.9406917492733801
0.9888147659599706
1.020869288702428
1.046599089586076
1.0590530705512582
1.0745944530551979
1.0811218364572628
1.0843339678597037
1.0895065553248664
1.0908558246492106
1.0892337640841088
1.0881284817741688
1.0876640624288672
1.0845339738276585
1.0797620360965605
1.0738898345158128
1.0682039717869518
1.0592696917120126
1.0513401829866844
1.0410398679463555
1.023862097869137
1.0056242159858901
0.8434373969514726
0.919708366405957
0.9815965426727609
1.0255919224011374
1.0550100207520128
1.07234757671172
1.0867515888651853
1.0945310821162406
1.102974122223819
1.1061919358960457
1.107272392507705
1.1087521379716514
1.1067611585829848
1.1054818310022712
1.100552118291761
1.097406732021315
1.0917563048698957
1.084803322125479
1.0773301457111104
1.0677275363330372
1.0575450070223875
1.0473031581500838
1.0285916760923213
1.00821852746675
0.8841489971873804
0.9658860067136604
1.0307616951774716
1.0672368846121953
1.0891722965985724
1.101232501431883
1.1114286912519764
1.1169086940470028
1.1230487567637315
1.1256567640067545
1.122132079725858
1.1230041942818294
1.122953249903516
1.1176073984011599
1.1173922049716742
1.1109358540402594
1.1055349743722998
1.0976959749852992
1.0900504315456847
1.0790577721654264
1.068282570706185
1.0531640132173907
1.033159209659992
1.0135466249422886
0.9226979953698775
1.0320260502257539
1.0811817890737707
1.1124937912801842
1.1289771892602962
1.132904801925548
1.1411348309073381
1.1445367680712852
1.1419382081051335
1.1480598156655129
1.1460833092345928
1.1425592882143627
1.1413293814934946
1.1343663234899932
1.1331933380958759
1.1249327966691767
1.1183683001939957
1.1132048614383634
1.0979253192735001
1.0903426875603288
1.0746835284710483
1.0590731023697555
1.0384085397296614
1.0146218139192802
0.9804499560042872
1.0839703849989637
1.1375653137339177
1.161557988810028
1.1674949441785627
1.1683265464346446
1.1709798551861728
1.170034217103376
1.1686755095226329
1.1702978217653894
1.1665021758296739
1.1639988973134343
1.1602969764846418
1.1557139780049355
1.148782720486992
1.1435770748657452
1.1354845925801966
1.1247721523945087
1.112830570678815
1.0979222786803853
1.0852051150286428
1.0667559411739493
1.0438561821668533
1.0185945548877837
1.0313801227621542
1.1436585545384597
1.1951549603899763
1.2104265682385966
1.211749075133988
1.209538884859601
1.2011365565269858
1.201004000301967
1.1954457251129886
1.1950721695154278
1.1917605236361428
1.184401245155697
1.1786998228544883
1.1745996819706503
1.1680816302203636
1.1574987745180536
1.1500177180784237
1.1377282345656865
1.1269635412627288
1.1111092813909065
1.0949470815559073
1.075775514501674
1.0506735042549717
1.024159011421433
1.0996218804076683
1.2086967603203826
1.2479113108097217
1.258128229616696
1.2526005842422223
1.2472875712882452
1.2379661957462598
1.230515989694704
1.2289743375880609
1.2200254032711013
1.2141052586510614
1.207881696137597
1.1994700920203158
1.193795192533351
1.1861590748211235
1.1748193550723758
1.163294572834247
1.1521140953963702
1.1400348193707817
1.1232143738651985
1.1054661509889283
1.0811425654536133
1.058307446310302
1.0303855955632064
1.17395844425742
1.2725109889844604
1.2923654468471768
1.3095977246913673
1.3025441090064964
1.2882496494221634
1.271533639408408
1.2699700348295806
1.2566931084615547
1.2479852737477437
1.2372921662323704
1.2318019490814447
1.2216658912488194
1.2139165456992416
1.2034042282493655
1.192771157061261
1.182117087279805
1.1683783177528932
1.1521542280095587
1.134095666100795
1.113632818126071
1.090906156659462
1.066523187496392
1.0354250625524257
1.2724733946186144
1.2990467316639847
1.343967404925336
1.3392701745575146
1.3370927451238062
1.330964419167782
1.3093668135286485
1.2993261134600378
1.28898605757725
1.2768441640142063
1.2646993421597124
1.2554544229253743
1.2442444181035395
1.2353522272982689
1.2232055499263235
1.2118234884599173
1.1991230135807207
1.184159201374309
1.1658748454325885
1.1464184952126346
1.1263326478557785
1.102547576545364
1.074278560006509
1.0432817072400176
0.08459273287338055
0.1604071937581713
0.29087008629315037
0.36886980554979004
0.4529055110318855
0.32059635600744574
0.11751616383099245
0.2189096313513139
0.3355130922366537
0.40269778510143145
0.45319241297182616
0.3156330024313965
0.1338451555269293
0.22770227585698707
0.33557267064660606
0.3881992758587216
0.4032313390224036
0.2856512172192486
0.15179675778679405
0.24730850317653333
0.32934060509928603
0.3525814100089468
0.3435779855700361
0.24495174428125643
0.17151100202545136
0.24911956217734665
0.31492635992213236
0.3203034116517896
0.29356271018448243
0.21775030386890926
0.17994004055189303
0.2485541731009916
0.2916111419350638
0.2841116953813798
0.24381247331121025
0.19760510435800907
0.19006269771658324
0.24819493257907993
0.27284081507145824
0.24956613988212537
0.20575317513722968
0.16970442326614127
0.20246640948299538
0.24338933303481664
0.2573896191295892
0.2185717979860314
0.16075924741001918
0.12732099149697734
0.2108653136851294
0.23984231818126014
0.2416139841685464
0.19484403415987395
0.13190349480648025
0.12039128284197603
0.21471845106400844
0.23884451681921084
0.23029778471087642
0.17486116153793774
0.11238685876375698
0.0930893816232582
0.2128478219053746
0.23876723557133966
0.22442020320548592
0.1654666078086654
0.09625832991704675
0.08594513614474386
0.22460361735615442
0.23960533702248854
0.22205608133136556
0.16224811422703958
0.10109695641342134
0.07226545519570604
0.22308796953517857
0.23799187942724287
0.2230774257003113
0.16500648835856024
0.11472918402374085
0.07352183989187655
0.21579460975382378
0.23997151211788303
0.22817780605977386
0.18771541397524366
0.13425286336483186
0.10078329397793828
0.20648059155406268
0.23941688360899427
0.23585603096967842
0.2022716795569377
0.16274320699904965
0.14019918094119965
0.19622804614577946
0.24230935413241997
0.24183637707434474
0.22301378123156593
0.19187319646813372
0.17311656071338533
0.18261483978823564
0.2373533824999372
0.25113845552292813
0.24487255696814847
0.2327761397913948
0.21278896830993094
0.16546119058427897
0.22993662627528103
0.25898583586543367
0.2621038698282059
0.25919037964355696
0.24376575974083778
0.1508937091213523
0.22623205719382833
0.2648160123055365
0.2793686914477555
0.2850589847582345
0.27858468726118857
0.1318576527132481
0.21643541338045577
0.26545420869848246
0.2904439520379788
0.30361270969675297
0.3082092128866276
0.10937357574958775
0.19938775887102292
0.2659046030109403
0.297921068838935
0.32043100011912046
0.3288017167690672
0.09662193633160943
0.18069429842696727
0.2656623892663214
0.29953307836956206
0.3307138914776144
0.3470661774252053
0.079465047413005
0.1583384872049548
0.2519389695208217
0.29135844381445447
0.32424500533146283
0.35125616711400404
0.05345175273316861
0.1234456787318672
0.22974625689982808
0.26031897123362663
0.2900398607996586
0.33951538133282466
1.0876108551968493
1.2826973812453737
1.3823541686325123
1.3790445082160723
1.3807761247052133
1.3761212120421407
1.3550139822043077
1.3309959023181235
1.3211146001415819
1.3054967657729877
1.2945173896324729
1.2812852905362313
1.2690043926238554
1.256786820764784
1.2424551294444202
1.2278976534034234
1.2140264119432722
1.1986192262735478
1.1796198366313002
1.1598170052304952
1.1389429729043603
1.1121136596128671
1.0833570757740307
1.0501463735295964
0.7876652212379276
1.2139475512453297
1.3647139747772714
1.3931393439811535
1.4126412255384984
1.4117719291857713
1.3828127220707809
1.3680324429245805
1.3512616466968597
1.3331264484694154
1.3241319069988686
1.3006927177834222
1.2907586418666523
1.277177866887351
1.2608121808665431
1.2472118526515943
1.2289123342692014
1.214682585145326
1.1943509987864664
1.1736862019583427
1.1494209198813128
1.1232010699881976
1.0929538160949044
1.0590106358558993
0.5399719692007774
1.0822080205945055
1.302374056967137
1.4074752153227594
1.4235314399866834
1.4304834186737025
1.426655955897691
1.4036652593053756
1.3848732040977398
1.36340508533259
1.3497829415792983
1.330197003591892
1.3155802790242157
1.2942632984265798
1.2811131904564892
1.2628989835011455
1.24641518539963
1.2294380598507988
1.2055509980325234
1.1849535499900068
1.160969908187701
1.1342889164070933
1.1026344273381314
1.0676315592005516
0.4215899803635109
0.9668210339473311
1.2533900855065105
1.382360021971708
1.4289016460206758
1.447577408210336
1.4360212205951632
1.4374813601273142
1.4138346451508648
1.397112542958862
1.3742971947076348
1.361051860490888
1.3412169874616058
1.3156398194175092
1.3014660394059674
1.2817990579641771
1.260216805830234
1.2397840401567548
1.2214245077040047
1.1944434571719418
1.1731274772846714
1.1438815159004998
1.113427417919646
1.0765794254987058
0.3484621984822336
0.7901323179604262
1.1392023037039776
1.3052000264347012
1.4104032109945586
1.442169824618221
1.4670597124381657
1.4464201421874754
1.439742437207955
1.420598129156845
1.4086480809875574
1.3817288858128633
1.3615061356031861
1.3394638271728185
1.3204111285257392
1.2968588871559894
1.273823259447796
1.254471068124035
1.233849100814598
1.2110102343137799
1.1838796758315433
1.1555265794248708
1.1220918695896454
1.0848166653488562
0.3128231933975224
0.6724086142460151
1.026742028481459
1.244222122874174
1.3488095569820335
1.4406223188537477
1.4613335834841563
1.4494846780899837
1.4609694296153521
1.4331198384303119
1.422319705402894
1.402410879289163
1.3776178693255048
1.355189508150012
1.3353529998321343
1.3101726088013614
1.2878557624203029
1.2703291231308453
1.2414200937611417
1.2240009624111305
1.1944340634094577
1.167646178950057
1.1317297692476591
1.0955813952846407
0.2849296645562572
0.5840208911514291
0.8996049253791104
1.1487570372537936
1.2930999397464702
1.4086305768527176
1.4395000232572572
1.4580831718520488
1.4652849583039642
1.459378941452087
1.4342043245490013
1.4174071088732705
1.390460279632535
1.373118987722253
1.3506456881725648
1.3260489261493627
1.3033882768981895
1.2763530816206519
1.25695272440115
1.2347487965603894
1.204989624634787
1.1761649030937462
1.1412907738096145
1.1051572411604904
0.23947437631297103
0.5097529879183013
0.8179530150458317
1.0302095900912038
1.2034604736189836
1.3268048688682028
1.389965503912196
1.4417773029492973
1.4443339433627405
1.4530775463528032
1.4422775976806121
1.4296378933630614
1.4061666934507921
1.3820921080162596
1.3645330785321679
1.3410095981306296
1.3130949274101702
1.290589524240099
1.264122583865969
1.2458938411970497
1.218827879075238
1.1837599728403914
1.153175629275498
1.1144796536391466
0.1971327805751535
0.43598112496739116
0.6911207632979607
0.9298747413357542
1.1027607663445742
1.2522083019145993
1.3548636240089218
1.3976342036738423
1.438896620284704
1.443994767358432
1.43574270514867
1.4281378056818101
1.4062254062345496
1.3929870925793701
1.374508581547965
1.3442875603331659
1.3256395001357906
1.3024061996133565
1.278169907498436
1.2498030702562923
1.2267228029592412
1.1984104748527653
1.1639858350660601
1.1259549947273104
0.15807642769103492
0.37862741007328266
0.620879212036051
0.8423854218984921
1.0278426938618377
1.1766863457312637
1.267743870967228
1.3548121020475883
1.385083200606898
1.407786300385498
1.4146990262714232
1.413577640302642
1.4065693628048366
1.391936641921105
1.3661941730488172
1.3461372882748313
1.3314944802167217
1.3159096308109492
1.2809169587491858
1.2615750250682845
1.2353510085740276
1.2026828451950948
1.1724748626151575
1.1373473385185464
0.12771067177808698
0.3127529767072026
0.5179996851934846
0.732161860376092
0.9314023281577968
1.069018545902934
1.1873453190526484
1.2821360829615034
1.3241368682319168
1.360797976160685
1.383680231070858
1.3823769005301827
1.3864423616296326
1.376498079896292
1.3656985742613656
1.3571298861133636
1.3359840115890744
1.3105756286236414
1.2908706475166003
1.2694905641873155
1.2423422947712224
1.2106580328440113
1.1845563085504405
1.1500376912199801
0.10919837466348803
0.24717567517555838
0.44567069897572187
0.6463654684537409
0.8419627552367994
0.9818234215974759
1.085610513435794
1.1719611432804375
1.2597704379266614
1.302431530039934
1.3340171370896265
1.354741308918959
1.358369645316806
1.3516204545357766
1.3528977805958744
1.3374165010416987
1.3255095634252592
1.3077346955217513
1.2945991598677646
1.275132061134753
1.2481739406715993
1.2242319495546505
1.1947187441058984
1.1647488981260163
0.08687073722987343
0.20145713459120984
0.3918567548973625
0.5611406740186615
0.743663113464557
0.8882047429588911
1.0064869130458594
1.1109479771936879
1.1693199826473075
1.2198251346542115
1.265042333715358
1.2906132719770151
1.306498049798601
1.3217541800724226
1.3204671454900585
1.3266064439693301
1.3177643325337587
1.3000250543383476
1.287781286005548
1.2716566793487492
1.2457914800543952
1.2302266122351895
1.2000601571006555
1.1676333467144417
0.11626640025815199
0.18350044563294016
0.32835207162464175
0.4945999050221058
0.6578328395482254
0.7688415577953825
0.8877981111059973
0.9954938988948597
1.0753196224928685
1.1371019675113603
1.1904984508090228
1.2139473932197782
1.248123008539943
1.2707519097694027
1.2707659755014853
1.2839685633806293
1.2754304594423111
1.2735770484346292
1.2702852468396437
1.260180570099818
1.2427506600663871
1.2253038538592143
1.201721557136593
1.177872308848655
0.13685220665644726
0.18474705561692895
0.29057212559873025
0.4305397961085549
0.5645711034720222
0.6801536678369563
0.799404920631994
0.8977220844451111
0.9669621780024295
1.028909370285507
1.0857851545849189
1.137882619457714
1.1640366575527603
1.1975299198345422
1.2125453921841114
1.2310458490670793
1.23689110197535
1.239219738090832
1.2349734356064275
1.2328222240158833
1.2224968841294352
1.2108489713846318
1.1970408439208486
1.1766174802797111
0.16354198899173095
0.19231793684539178
0.2882865439146335
0.3740493409880055
0.5118919104149259
0.631907088913465
0.7196120113897347
0.8034905645375507
0.8847034490452464
0.9424499791745224
0.9875992845489031
1.047416125969339
1.0778276436775556
1.1139330065805746
1.1414976724316959
1.1603101373778297
1.183613426175492
1.1872359055318347
1.196081214089712
1.1958403838893932
1.1946556377047184
1.1849341304132919
1.178008787723062
1.168525240417863
0.1896206184555863
0.22602700898546102
0.2888297842874827
0.3684487120641927
0.48094816198225127
0.5652095220283913
0.6579880787261869
0.7360396534845326
0.8108696935120003
0.85259450268505
0.9089255491892427
0.9479610446650552
0.9835957956531907
1.0230084697354915
1.063725230132545
1.0856053110245711
1.1083320620014956
1.1250949066455762
1.1432892750890502
1.1487494434403447
1.1508508265705744
1.1534793784376407
1.1495425184091093
1.1434587069372808
0.23959920209294622
0.2592980501692857
0.30175271880039545
0.373137404745708
0.45179916444003654
0.5273322420615568
0.6019046109673261
0.6672720907192871
0.7259978143830577
0.7809981052604007
0.8292783449945058
0.8674807025476989
0.9078101434535323
0.9380197201092864
0.9669198108999675
0.996858319054734
1.0281246131830863
1.0503065726549738
1.0725517594705518
1.0900281746117195
1.0973749275128386
1.1045777786053748
1.1078012089961116
1.1112941614959007
0.27137864702473424
0.27999364470499094
0.3217990866628633
0.38078704765514626
0.424121129952167
0.4877105325257748
0.5546868559438369
0.6018927303920234
0.6743228870987807
0.7101209147286238
0.7510442612069672
0.7973564837641768
0.8338361026971794
0.8599637576950159
0.8887829552785939
0.9109481833579007
0.9449573510589331
0.9690966200672467
0.9954093205816107
1.0147093712438597
1.0358923494900274
1.0486229889274383
1.0586947886802762
1.0643272782169495
0.3091225531243511
0.32786700380233347
0.3389454051608607
0.37845038044035995
0.40781445866863575
0.445344780242383
0.5170541427522393
0.5629222143246155
0.6108565416882659
0.644882173397902
0.6839728687084581
0.7161885598044871
0.7387568919442851
0.7775838577971247
0.8170832689954154
0.838490296246363
0.8764776581470658
0.8947653258058808
0.9171891596418544
0.9413530862336387
0.9614025064294096
0.9836046037457399
0.9936500226391756
1.0109914652986876
0.34374453637981806
0.3575806195256109
0.35459342911594083
0.3656201750431489
0.40160191303573434
0.43233122481410213
0.4758828218185591
0.515935468892081
0.5705058333891435
0.5716191651561989
0.6126011048171858
0.6497029008855205
0.6766371277382048
0.6942497900886413
0.7263155005675448
0.7502227434433971
0.7823495658938084
0.8124586832570653
0.8420933456742252
0.8689200804816196
0.8946199123757046
0.9152619638899767
0.9365612775935069
0.9527802970728954
0.38105533774958916
0.3832071719479061
0.3796779289033939
0.3632608840148702
0.40116029564172095
0.4304032215046263
0.44844285046833
0.4822898345994263
0.5012814581783406
0.5258483272196582
0.5439029969672488
0.5713795245633364
0.6020743182160507
0.6140380757704703
0.6624048973835475
0.6771086816484888
0.7126470959901354
0.7457553552607465
0.7761867978552528
0.8100643260627228
0.8308884493439728
0.8541422004726169
0.8760021363313439
0.8985515217009393
0.4066251591156624
0.4222232436051079
0.3898088366335064
0.3823579724571764
0.3802563313069873
0.3951721195234865
0.4298397713558081
0.4282531694111916
0.456236608633919
0.46237854412044255
0.484511714977063
0.5032751563421127
0.5386662777761503
0.5664199414029953
0.5983110066919664
0.6283680645691945
0.6532127708006844
0.6917070438962193
0.7122019850168557
0.7512658913002039
0.7719181324744211
0.7935608155357945
0.8143912101758995
0.8391845085153995
0.43537831416814654
0.42317987829976345
0.389362156258804
0.3740289401138419
0.3598236323176198
0.370210960550551
0.3892030639405121
0.3873063355143701
0.3933331665592724
0.4160597668219109
0.4379301806685679
0.4754179792134877
0.47654245913983073
0.505190213529879
0.5392040192945745
0.5768932920073678
0.6182723395556646
0.6451366952505813
0.6766546773716784
0.6940781074321685
0.7209399888025031
0.7506656345652186
0.7649005299493047
0.7930143338056712
0.06335294908693978
0.1681681454366077
0.28437784318682785
0.33854299620693024
0.36863381437890863
0.4290193312178328
0.11307997330192718
0.22975663295146875
0.31550650216475357
0.35607933573562295
0.38476356422117153
0.41228250970480773
0.1400886743511893
0.25035886885936526
0.3266406866778997
0.35895893897461695
0.38542380457249237
0.4028967590351346
0.16344014972316334
0.27009736409334867
0.33452951523784447
0.3556516676933106
0.384367042942163
0.39981805976521806
0.1877122446445762
0.2809188984657036
0.33394032193130696
0.3569712807455858
0.37735319027737824
0.39825218314713884
0.20645765682185468
0.29006911541833535
0.33785872551413926
0.3511605960561121
0.3772362154526543
0.39657587765497204
0.23308469532548365
0.29768690949308557
0.33696801851353414
0.3468962779824867
0.36942108554222414
0.3921255145233701
0.2510514371335958
0.30408917849933265
0.34624146214233587
0.3525954137776202
0.3688132160458432
0.39238683398098834
0.26658100149672004
0.31206080004711745
0.34230424781698926
0.35283408727586996
0.36611253755375067
0.38028830153958515
0.2762934730670944
0.320408883689718
0.34620705798847257
0.34872656735655017
0.36678174936312835
0.3775161345621503
0.27660644627070674
0.317009792052837
0.344112768566886
0.3570036373926904
0.3649713804614088
0.3583928014752985
0.28500818781813725
0.3171129191849529
0.3414991664060736
0.35575266579038656
0.35812291111259864
0.35157788961773806
0.28351888419702836
0.3176939762404189
0.3433742028448027
0.3557826074204037
0.35885427460514535
0.34354466282134155
0.2894372537401269
0.31433502149065273
0.34346424237736917
0.35574995783902696
0.35338663173684004
0.3464298113898516
0.27792624717019504
0.3120339031358862
0.3475391801140742
0.3637193749708326
0.359040798416398
0.3503944092229001
0.2711678983141882
0.3075037047948934
0.35133589206997135
0.3594896562286341
0.36603133876679195
0.34288856688540825
0.26427121452224855
0.30450064736474824
0.3496938910706919
0.36078792996055753
0.3691971141683156
0.3498630315606039
0.25005376165332266
0.2999621492044384
0.3497125573387086