/*--------------------------------*- C++ -*----------------------------------*  =========                 |
  \      /  F ield         | OpenFOAM: The Open Source CFD Toolbox
   \    /   O peration     | Website:  https://openfoam.org
    \  /    A nd           | Version:  11
     \/     M anipulation  |
\*---------------------------------------------------------------------------*/
FoamFile
{
    format      ascii;
    class       volScalarField;
    object      U;
}
// * * * * * * * * * * * * * * * * * * * * * * * * * * * * * * * * * * * * * //

dimensions      [0 1 -1 0 0 0 0];

internalField   nonuniform List<scalar> 
2880
( 
0.08724623556770837
0.16574427955834792
0.17215946456319814
0.1840869935459767
0.22810225305214757
0.598243241233728
0.12849397116200592
0.16512348458666745
0.14942673875653087
0.1781289353104769
0.2787228757355919
0.5310907827002319
0.14200978429808836
0.15070219322369444
0.14083426818243383
0.18647698289368758
0.32493154593316836
0.5587616095621994
0.15222861544496935
0.14097176181663287
0.13727248253425944
0.21148928200097195
0.369171663876982
0.6008045632177397
0.16324843326554955
0.13674928382550786
0.14653452678755113
0.23676592529480506
0.4142053839185032
0.6323185084539572
0.17175618510676582
0.13266843544708723
0.15274299971150065
0.26135290609506395
0.4447996821040924
0.6523354954085534
0.17739098662048897
0.12929384376213737
0.1603347874743921
0.28098453687382635
0.46765335880911124
0.6816819191435056
0.1833728998417159
0.12665650802656941
0.16755742965344284
0.2972549486243533
0.4924872681163443
0.7023819912579191
0.1874967442400842
0.12679646607515505
0.17237164616278522
0.3127527207682909
0.5105291947920401
0.7208534828307491
0.19162476784343213
0.12652368070850772
0.175198010272623
0.3200151771722649
0.52295976643027
0.7286186997867086
0.19429878075972246
0.12430337262232194
0.17454810242803237
0.3232158554116445
0.5285888737475998
0.7350913323589416
0.1954628725886478
0.1247664849153903
0.1735580039829541
0.3236142328953159
0.5313099515754501
0.7437347172181868
0.1969642056270659
0.1232569042259139
0.16860366670123972
0.3164457556977296
0.5274247600573199
0.7451488311680617
0.19760804106353502
0.1241296002087956
0.159822905070328
0.3046968245756532
0.5173785722301215
0.7495085714476843
0.19613987568378938
0.12232040032446635
0.15041118584466004
0.2891378419519849
0.4990189754216324
0.7323927687865093
0.19366000641072634
0.12612025763914214
0.14388448838079623
0.26680315362658547
0.4802887123409294
0.7218888482170485
0.191169150125313
0.13014560402180536
0.13883571777405546
0.24212662872333357
0.4501597916062409
0.6977240817854573
0.18672680735416855
0.13678910405008937
0.12880635849505367
0.21339243147025014
0.4138203336953112
0.6665760841224122
0.18351025270321247
0.1408564614713691
0.1317817265973613
0.18754738404369614
0.3702234222908754
0.6332989021629976
0.17353355165751982
0.14554562426593629
0.13767775435204077
0.15841449635910226
0.3195621357438543
0.5804825783528721
0.16153698305859646
0.15121688890956406
0.14883903970628293
0.1468904335892391
0.25999840999100315
0.5215870592781388
0.14868023418256826
0.1560997403764034
0.16710128323292545
0.14905611841896726
0.20723360097449622
0.4429167250661541
0.13099442906392006
0.15796747221971916
0.18493545852717322
0.1625862485342335
0.20136578532388802
0.35215879194967387
0.0806070938266609
0.1301905261730847
0.18866467732154718
0.16271511531193344
0.2916984487949148
0.3055867803890542
0.9177306876123015
1.0247378700054033
1.1238591892679661
1.1681968361860968
1.2377663077200938
1.265959709422202
1.3022536144874797
1.3259298050708013
1.336220987932626
1.3469474067688472
1.3486931680950156
1.3464041986019506
1.3413026912236385
1.3342984194625804
1.32606553726403
1.3089717971594046
1.3034364002726466
1.281301565543103
1.267442121652854
1.2410668720890157
1.2215850245364912
1.191009148976165
1.1630886393513118
1.1268392308058708
0.8970470925896163
1.0194318404834537
1.1246987868636324
1.203762138279615
1.2571211754901732
1.2835067912960367
1.3289403100794215
1.3404668903252581
1.3370725422988499
1.3442164568355583
1.3445059396974819
1.3343887123294267
1.3316003862378638
1.312830965681449
1.3084205307675394
1.2891715267817794
1.2739701324235295
1.2608538456389222
1.238786539319982
1.218552887566853
1.1957751818439248
1.1674259888468528
1.1437813791498246
1.1081994333824197
0.8850196777132278
1.044190305540599
1.1381648865375162
1.2146779968832784
1.2663927398031571
1.305885348144884
1.3298789886834772
1.334008120446912
1.3419662707562927
1.333904869720513
1.3285461644114491
1.3186178623761635
1.3057764716681735
1.294184312177606
1.2822846344517396
1.2721943687270243
1.253105703000569
1.2374218230838454
1.215461077521669
1.1945722477059968
1.1725544878924503
1.1505821934070604
1.1240812387752857
1.087757055787151
0.8781659514594369
1.0490350454852333
1.1512805110414455
1.2295958353608458
1.2827960490766597
1.3136004931967764
1.325955637673547
1.3284587678083772
1.3248806211704867
1.322438011933924
1.3113743225411594
1.29729663065684
1.282485146440074
1.2791962428718306
1.2632068343039238
1.2441915806055404
1.2318798560239497
1.2142079198206284
1.1949886773622405
1.1781010036295034
1.1543891969056652
1.1329365815907735
1.1054561579259097
1.0734557867316112
0.8808478353501709
1.053500337522531
1.1725678938732227
1.2411859852053027
1.2883739260688802
1.3064887231219688
1.3192081751721336
1.3168380103684294
1.305194825516235
1.2963321496114677
1.2862812728049173
1.2718951271813743
1.265268744298652
1.2458265955387167
1.2402710811522455
1.2219718494125011
1.2095290700705754
1.1955360437356113
1.1771977706367043
1.161513076230962
1.1380959003862918
1.1176655058405065
1.0926142647145864
1.0593606441200083
0.8998686410222694
1.0672192381810897
1.1882432838568089
1.2545268316109255
1.28600453968506
1.3030557552801318
1.3082443457331645
1.299492600826677
1.290082042324573
1.2746604083775288
1.2705222218320757
1.2548418178035445
1.2440130132724598
1.2330242875600914
1.2164657944305806
1.2122714327855846
1.1921205595775355
1.1747504498436152
1.1634312677729917
1.1466880340683743
1.126881450830004
1.1043708693999583
1.0766448108800917
1.0488656386049262
0.9077183795962758
1.0779085178858547
1.185853478948549
1.252066204759541
1.287150980846272
1.2906780499614248
1.2882333628984797
1.2796582494665376
1.269813836019056
1.2533849736055127
1.2507892146036663
1.2373955589840453
1.2244431602149008
1.2126706634387592
1.2010171766827624
1.1927147749036562
1.177430737468338
1.1594112094059401
1.1472995398787156
1.1292992997578137
1.1111076284347052
1.0912146001290426
1.0654468405803459
1.0394877158992692
0.9204028165461459
1.0979635691537941
1.2057149068474382
1.2508084324639706
1.2729398896648607
1.2778831893053313
1.27398667738212
1.2626829070748897
1.2482417725833777
1.23544126502802
1.2296167552204436
1.216902642249824
1.202279446809741
1.1960530282927349
1.184093995518195
1.1732785729705755
1.1629589960701365
1.144340043373202
1.1324310896335874
1.114598388859458
1.0981809686878583
1.0779058486641249
1.0571479483185804
1.028054119522649
0.9329608809726788
1.1045227970156184
1.2073590852124765
1.2525075462179829
1.2632499473344754
1.261729080531909
1.2453296619223369
1.2412655059096505
1.2203870913006283
1.2156848361430397
1.211368746760535
1.207319538484428
1.186815210534622
1.1815418665649848
1.1681505883081964
1.1561304468240199
1.1482573083748677
1.1341594051265198
1.118655508278699
1.104476714591833
1.0861722601450683
1.0698054258555507
1.0463492101426703
1.0208202207560584
0.953809135886148
1.1082055500397283
1.2019300259551216
1.2333836767794968
1.2464422057808222
1.2355576398461263
1.2228772524331264
1.2148143249975332
1.210929975755021
1.2026724312523156
1.192190062882479
1.179979218917468
1.1719524355186914
1.1671682482551378
1.1517894738061776
1.1425686685077443
1.1262197374784553
1.1197421064904134
1.1061681883316679
1.0938144407683437
1.0776192052728377
1.059554732123312
1.0370630287877756
1.0141372996034372
0.9574952992511846
1.1083213265010223
1.1914479519352255
1.2193353525606645
1.2144374620711202
1.2140137282988532
1.200549486142891
1.1984703451607235
1.1831280031516738
1.1791040800788801
1.1751871261435747
1.1690223112078861
1.1581101367555284
1.1559332414938892
1.1418461084032048
1.1334848246652314
1.1160956321783473
1.1093840980786274
1.099570199647193
1.0825041163687226
1.0666884701656607
1.051744799768122
1.0297854895764402
1.0072565173674426
0.9611160209891065
1.1115952766679182
1.1864500709678987
1.2008097628678711
1.1995837568006207
1.1869536795108413
1.1817552756912617
1.171070166581265
1.1675243102789126
1.1647028468253149
1.1558196239670064
1.1508070861524096
1.1417228227505996
1.1332867089273693
1.1250180259821732
1.1190761111559646
1.1094629511421217
1.0995255747531487
1.0835860684322656
1.0724118173549326
1.056931176944167
1.0425369499676158
1.0223054967146914
1.0012479807708305
0.9705867341287991
1.116865332864326
1.1626440930899276
1.1767738230839289
1.1726088651306754
1.1700086204865912
1.1597636095916066
1.1556815947256245
1.1538521668582333
1.1470237770319718
1.1360952091992114
1.13246439719381
1.131472841653509
1.120329327136876
1.1163551119796367
1.1080484607291108
1.097039494002306
1.0855897108100991
1.0762174251550816
1.0629469400447065
1.0489864121217523
1.0345121096062855
1.0164665544741218
0.9973697849540303
0.9697893399833333
1.1072637028390249
1.1492202522689792
1.1562480316076507
1.1608174345383406
1.1427602120908154
1.1376098987321508
1.1360673758542033
1.1267753811415864
1.125370222390652
1.1288535444332608
1.118683858661028
1.1157238464682055
1.1080277779029601
1.0994339297742515
1.093401516199052
1.083967022108702
1.0770846375420116
1.0618978543952557
1.0525564837803265
1.0410953237239913
1.0282284342848957
1.011723544099144
0.9925493919904906
0.9690759628814736
1.091034818066047
1.1234347545817058
1.1275174241609123
1.1341369287930363
1.1213414931766907
1.1158580757090393
1.1103866951246764
1.1103899090721423
1.1075916492764069
1.1044455595279514
1.1002758534045818
1.0983734559668052
1.0933711746382067
1.086170423834776
1.080600014399071
1.0746307336289318
1.0642680103375453
1.056320729828326
1.0445155547827323
1.0358541891188542
1.0222213441442818
1.0063363584253744
0.9898742590548416
0.9662770269889043
1.081457735120451
1.1045901663823536
1.1085162666119996
1.1004998934554897
1.0967027917307277
1.095990824818526
1.098505478714428
1.0935842506787443
1.0880294089204052
1.0898199122639125
1.0870985237175723
1.0865766842826672
1.0795523182904008
1.0789176418045348
1.0677524997220758
1.0638634509312812
1.0537243548913897
1.0434760371547187
1.0375927145692723
1.0275215074011865
1.016189130717758
1.0031368441193522
0.9881439264906173
0.9513337436561893
1.0591046048551953
1.086524264556755
1.0821152699035634
1.076421015550126
1.0778776336035258
1.074013789253771
1.073662970820204
1.0728196264224414
1.073081072570488
1.0699992380475045
1.0727363865416124
1.072191653841019
1.0671293609894525
1.0610778700946613
1.0599396198260136
1.0515244084896758
1.0460426624546317
1.0382442592763927
1.0297334749803462
1.02139065709712
1.0130881390889812
0.9991761947739839
0.9860186814618264
0.9334170027633639
1.0334252534213535
1.0499135142032558
1.053036545202688
1.0541363972276945
1.0519375814881884
1.0545268247871398
1.0529871180332087
1.0529059321571037
1.0577883311040683
1.0584518493458628
1.0566646867785578
1.0553027472877319
1.0563725152496912
1.0486799889764602
1.046370757209686
1.039755346161508
1.0368553115104666
1.029187703746847
1.0230648350261315
1.0161491875130064
1.0080931151921384
0.9963328401503848
0.985753972388781
0.9159756557341532
1.006516062442566
1.027250623893608
1.0289909179912209
1.0328471636229095
1.0280113888262281
1.0334945260558441
1.0338755222086784
1.0333528481644343
1.0354733459366692
1.0397429484708953
1.043557006588011
1.04138692615208
1.038454569350493
1.0380034717157633
1.034972447996838
1.0323554647730042
1.0284626331271318
1.0223752912846384
1.017752566350699
1.0124686279562423
1.004964808045689
0.9949142731723898
0.9856737893776916
0.8881618494497489
0.9794137051484719
0.989477568119477
0.9973381716364486
1.0023442546464698
0.9988582964097285
1.0101282053464464
1.0097625873972769
1.0164998920001203
1.0167270529197345
1.0270079119492779
1.027795693098927
1.0296898904825418
1.029400225367265
1.026462335519954
1.0253326692403208
1.0229690159119014
1.0200487375348755
1.0151406997475239
1.0128116836651557
1.006661703783999
1.0025554266459633
0.9938616462716268
0.9861223708815193
0.8609860279913788
0.9444635748805427
0.9506741841678662
0.9662863786360504
0.9689105800829149
0.974655063401966
0.9849654246735584
0.9882182416391818
0.9965027113610869
1.0004409294751755
1.004483795080298
1.0140770989686818
1.0129649077554956
1.0154485316926511
1.0157539046046764
1.0176758676606388
1.0155296134072924
1.0125249723514287
1.0093552048471401
1.0075501069617823
1.0023237145870705
0.9989244042659973
0.9930017647908876
0.9866499178282108
0.8255547189507885
0.9117348373700378
0.9268095649733366
0.9301273434232974
0.9433193006102469
0.9482500451157773
0.9603921913894552
0.9711551686391259
0.9789647463505003
0.9868324854245788
0.9911389475102673
0.9978577152892583
1.0027324131766044
1.0038148329163044
1.0051776719653474
1.0062307906575603
1.0070128397035145
1.0068595472945905
1.004052761832854
1.002631177685314
1.0005353227056553
0.9973048740010997
0.9917932040143599
0.9875007094866253
0.7810738241688098
0.8643222131086046
0.8800748851322567
0.8987539946779345
0.9081261992940302
0.9201915482979631
0.9377829043579003
0.9498204795654019
0.9599123626224184
0.9683314493841085
0.9780383683827317
0.9814219090812504
0.9902940920400262
0.9926619926486344
0.9973309090164784
0.9980693799314845
0.9985523019841839
0.9992898769435143
0.9994234341940857
0.9983493515136552
0.997927080744683
0.9953601877566522
0.9926597628555293
0.9888019266235984
0.7208644645464775
0.8013526984204618
0.8340969994327642
0.8552376070773638
0.8748745504276034
0.8902631376718305
0.9133565688548211
0.928550571280564
0.9408816413287873
0.9538522267199884
0.9629979794097909
0.9698377195312974
0.9767205249388233
0.9823808021588345
0.9878626767161562
0.9911112181357599
0.9920858707146328
0.9938733326110752
0.9942221542975801
0.9950142238348028
0.9943981656602708
0.9943869264098302
0.9917330004261656
0.9901295732306763
0.060673611877011514
0.17979373659778694
0.3002764886717718
0.348530442600227
0.3516858542309769
0.31563247348257073
0.10490967240800628
0.23712150434613985
0.32174468238441367
0.3432958347678187
0.331622050762385
0.27354996766189715
0.13354048280401598
0.2553887082972499
0.3156416533648307
0.3295467539387369
0.3122145356276343
0.29394005262396006
0.16135762175431972
0.2706417520869131
0.3184431134896059
0.31823575989398634
0.3064545156567557
0.30931374768274944
0.18730207846425506
0.2784318471978465
0.3149417410296909
0.3153104750502306
0.30955579713057957
0.3217694283513637
0.2099619881472683
0.28748526330325774
0.31743374997752327
0.31863429192943277
0.3129105708491173
0.3339102506831606
0.2267947798358937
0.2949687439159856
0.32088412262009103
0.3204832328746099
0.32390674965031746
0.3454122868623103
0.2428429448765113
0.30380700816635897
0.32390325021246824
0.32784711430888225
0.3300040634636325
0.35855296206653614
0.25816156853409133
0.3062464762309398
0.32875135278770184
0.3339842384063154
0.34375392830947715
0.372132256973714
0.2648179084255859
0.30932353987076927
0.33582141853134356
0.346591541259804
0.3630237277709988
0.39891160250119595
0.2743528794357689
0.3121471363107062
0.34038995936004546
0.3592665565017063
0.38204434103197027
0.4187079316473242
0.277190336358487
0.3143196382640325
0.3448237516682425
0.3717672900467828
0.40254346344642145
0.4488074765464981
0.2783333975836523
0.31451695792219375
0.3568637897790214
0.39285814583702794
0.4271677830066582
0.47777616682719737
0.2765260676136415
0.3177565560440788
0.36539163609403574
0.4043666024893403
0.45523882301069835
0.5060268418737097
0.27276887026503016
0.31800290310885704
0.3709476237378453
0.42072178379628516
0.4779214509640044
0.5440805719815536
0.26097408919186016
0.313048554493202
0.3721429258379798
0.4360736031585408
0.5019461108800614
0.5841845372263423
0.25079547718870604
0.31098473240356717
0.3813983577159225
0.4466557160627006
0.5301200799268544
0.6211671877040417
0.23514595420776901
0.3065696385316553
0.38030545701708995
0.45889695812965703
0.5607698811592265
0.6607669077383596
0.21515523838634554
0.3027312427599177
0.3814209788921175
0.4654550915947323
0.5789052080861029
0.7042504890868521
0.1948729316154868
0.2868547583857718
0.3736895138247195
0.4716078831402029
0.5937222382307468
0.7419073388727653
0.16745539016602257
0.27219550660800734
0.36305197059394123
0.4658991192008478
0.6006614322743896
0.778666630744244
0.13694688379309167
0.2510262860360496
0.34148621602012447
0.45510379212855395
0.5944990328096411
0.8116767432508086
0.10234847464564205
0.21696696770371557
0.3148885419055724
0.43703034895658077
0.5638635959908098
0.8579630479287998
0.06044546612170829
0.15091071817558108
0.24936332147539053
0.3875321177885338
0.4870326038340967
1.0049213485971367
0.6222355788711973
0.7227181052546422
0.7764818626483236
0.8105717937016526
0.8433217684444843
0.865797191763688
0.8913030120355879
0.9101937016927966
0.9246376395661541
0.9357829263264457
0.9480047781977821
0.9582329574753374
0.9664350404544645
0.9726735444238802
0.9785676782969335
0.9823732780478311
0.9855320244820708
0.9901732452997781
0.9924797143723453
0.9938465645781648
0.9933736309898523
0.993418260050805
0.9922995721179861
0.9908833848538231
0.5332289282789269
0.6607742512376484
0.7265297703265889
0.7753373461034003
0.8147914693073444
0.8452672939230744
0.8697587445951453
0.8902399190054326
0.9071915867484418
0.924633322793232
0.9341596067430199
0.947521157991954
0.9560203549599113
0.9635988578208061
0.9719784637208511
0.9781971190539989
0.9809332410303631
0.9853457581266419
0.9884051618315157
0.9899858409916895
0.992164821101094
0.9926668213773377
0.9921932282136722
0.9919274723681022
0.48478428176438526
0.6136591687485148
0.6893523146384597
0.7422174699817521
0.786628356780827
0.8228011051007296
0.8503833835046102
0.873569968054715
0.8945608731597747
0.9110998802402864
0.9246950245367327
0.9350353050560981
0.9475467161087346
0.9578499374645453
0.9659882642068657
0.9725229160487727
0.9781991981042587
0.9824883436143562
0.9861059750025297
0.9888835074666217
0.9912237126534116
0.9917454397678653
0.9925483276291986
0.9926867277535911
0.45498225132863224
0.5815863390663267
0.6595753640253407
0.7193801012522829
0.7665566082587463
0.8042402675254505
0.8328700335430048
0.8610158337559961
0.8822882960295324
0.900797490355139
0.9149779575413285
0.9282288070554712
0.9408895946155762
0.9518466751563424
0.9617196455676527
0.9686085302704797
0.974781495653183
0.979030124015353
0.9838747638175454
0.9876430424387895
0.990447365504693
0.9923797771539584
0.9923437283044162
0.9933826073903946
0.43759335323560655
0.555848972957859
0.6346987538080404
0.7007065327132609
0.749578342846831
0.7901891454509318
0.8211864953033322
0.8513058212045614
0.873431510204078
0.8925221942412286
0.9107078079315347
0.9237408892046268
0.9363584980766431
0.9451199700519792
0.9577331731081009
0.9648617884976085
0.9703927942698629
0.9780525362446957
0.9817020890889971
0.9864781801690518
0.9899018233127379
0.9920345103715874
0.9930656765721793
0.9942847693121466
0.42823805756895206
0.5411357193525888
0.6216015095198264
0.6852980785122296
0.7417149682083535
0.7813596303293119
0.8132306394229193
0.842339256993759
0.865540070043235
0.8863697227719453
0.9053583222383002
0.9205715611084975
0.9360122361171801
0.9457253456150093
0.9559202133821585
0.9651929663831272
0.9727095617031692
0.9778258934763707
0.982417821257825
0.9874528978623269
0.9897773763142174
0.9925159640887559
0.9937564936849049
0.9949373838769234
0.4285634066419596
0.532922155811227
0.6142609182446012
0.6820767517190518
0.7340215688013125
0.7754146083041364
0.8110595004349128
0.8394615448200393
0.8644227861125627
0.8823439046135201
0.9021368397290146
0.9198309713911808
0.9332081515253553
0.9476771470924628
0.9568176598765432
0.9654710058589258
0.9725930045108128
0.9787051540640243
0.9826854148911708
0.987644355187291
0.9903430228861189
0.9928030727151081
0.9943135390499503
0.9949047505221292
0.4335179575152982
0.532040740272955
0.6126914396479798
0.6791693233672889
0.7317031220117828
0.7744790877274554
0.8102009259982955
0.8371542147209621
0.8592652364589813
0.8843814155107574
0.9046528561417878
0.921294370309157
0.9365883537519134
0.946025893235746
0.9583132723064121
0.967793143335415
0.9728939681313589
0.9791715882976435
0.9841621767298971
0.9885164005143942
0.9909132146319718
0.9934282607189354
0.9944861829463986
0.9953770347037655
0.44429029685344346
0.540584376798045
0.6176960756441244
0.6821484371403262
0.7357822673120419
0.778536486000427
0.8118742712066108
0.8429479958734822
0.8680431542720606
0.8877367404768467
0.9080867172399588
0.9270713205856203
0.9407671789581965
0.9495688698806342
0.9601035564332129
0.9714909303743082
0.9754441684380156
0.9816156761274044
0.9868770057535076
0.9900588616952329
0.991987541502522
0.9945253069257521
0.9944667021430571
0.9950744140379341
0.4629124701279489
0.5528076330630143
0.6279973913363404
0.6935060729501805
0.7413403080755301
0.7838010060949121
0.816245118724849
0.8449996357732434
0.8712589779092998
0.894783297272135
0.9135139356401363
0.9296694071763536
0.9428685719835603
0.9557166587394599
0.9650517802179212
0.9736229323025569
0.9804501702926085
0.9858449619843963
0.9876441373314986
0.9923220929933643
0.9936923556613793
0.9955296605609473
0.995238835784062
0.9943289941089045
0.4844561780025736
0.5699770989776887
0.6445242231311508
0.7020295268470901
0.7509389763078232
0.7958281178250852
0.8269744124060053
0.8558043494873089
0.8826209433769356
0.9032884865451887
0.9227467392179864
0.9379565196718179
0.9490185145800993
0.9599848911897706
0.9707876175599137
0.9784345665072878
0.9847785802864022
0.9892300110862539
0.9924687922413633
0.9935888313581372
0.9959113944774001
0.9959186914624185
0.9951121818255331
0.9934924595606042
0.5094533220288868
0.5927617503171084
0.664152226634058
0.720945908907566
0.7682328676138026
0.8077535551680886
0.8381330743145824
0.870844690652031
0.892456490752529
0.9130142324613153
0.9334900191433824
0.9470899597773328
0.9598891762935127
0.9715941347298277
0.9786461850561362
0.9849425706133678
0.9884600432732101
0.9934329565964901
0.9960058707415078
0.9963817047923244
0.9972949798409745
0.9976589341318379
0.9955188691782804
0.9924640048135044
0.543986605177122
0.6238218504016236
0.6886192871882331
0.7436871750409535
0.7921266801877254
0.8243674470821152
0.8578956884708108
0.887395197601179
0.9085681859303991
0.9291410339336931
0.9472156081603156
0.9598211328238085
0.9714848477057715
0.9810567928319244
0.9867621845836916
0.993005352309242
0.9957447903493053
0.998544844153617
1.0003798501649575
0.9999292875959589
1.000049223905945
0.998393634716743
0.9950024404740052
0.9906767997452548
0.583987758534036
0.6575479691057264
0.7238881814436742
0.7702427948175918
0.8107664256090226
0.8471669946125253
0.882092597281755
0.9059707835818918
0.9314077834894673
0.9444138020309688
0.96069728900058
0.972588193917279
0.9824924816207532
0.9909398483811529
0.9966058382075742
1.0018820659602041
1.004055573728026
1.0060420722528656
1.0055642826755806
1.0048650115079685
1.0022530667316036
1.0004534697255238
0.9953325274480967
0.9896677904673821
0.6271769759573668
0.700182366918532
0.7575677791700846
0.8057651507638398
0.8422722421735207
0.8784232873459313
0.9052853326570545
0.9290107985186095
0.9507386740499664
0.965389768452305
0.9801338797285497
0.991277127569157
0.9974269955148884
1.0041137151172839
1.0085207843364543
1.0112168630016856
1.012748167618091
1.0127589882591064
1.0102267609458302
1.0092414676900106
1.006894654247489
1.0025918687754725
0.9961275374557604
0.9882555045369187
0.6741237283670966
0.749004333814338
0.8014440997681695
0.8448419366303813
0.8802926806269531
0.9113480257035012
0.9396136075235486
0.9598969258487084
0.9744694133271021
0.9891936396841542
1.0006675643610208
1.0076531960392154
1.0145565646888677
1.0194249937249666
1.0216741121227044
1.0228693710863122
1.023167600583604
1.022569356413124
1.0195106631187048
1.0132076762515863
1.010470617439954
1.005364239906875
0.9965791142527856
0.9875227459178438
0.7304081489921448
0.8057786036702885
0.8540617237965932
0.8891397352669768
0.9218969047950888
0.9481288635595629
0.9715433323086101
0.9869322429874656
1.0041092662108149
1.015470973319474
1.022123452687897
1.0298429611872129
1.0338889372456275
1.035421272978994
1.037392333781188
1.0363896339323067
1.0334989913037531
1.0309599664996818
1.0246499319571212
1.0216617830369228
1.0145301984430066
1.0072004712510427
0.997603029015517
0.98646216774332
0.7851873473156685
0.8634806731255712
0.911639635290381
0.9474734951619789
0.9699900959551604
0.9910277534415856
1.0073459367614386
1.0218183035408046
1.0330092926354293
1.04293839131288
1.0471087453638552
1.05114948386616
1.0535213235188288
1.0539539506594393
1.0532443285718989
1.0508802282603928
1.04684104335407
1.040505190084672
1.0348629607740236
1.028198837847275
1.021012668108285
1.012116189350223
0.9998682808417061
0.9871158208278197
0.8546536947878444
0.9323843934025134
0.9731786820881713
1.0037803761610573
1.02536069012891
1.0389236863489726
1.0499554582642063
1.057649316196787
1.064915260168355
1.0709984518211801
1.073124928644725
1.0762230668636426
1.0752112906590579
1.074035895969499
1.0686858100118333
1.0642382344681334
1.0599275907283723
1.0521032376798765
1.0454732903276749
1.0363380304474241
1.026281324531827
1.0165672104004453
1.0029868040877041
0.9886429075736113
0.9315778540612167
1.003509824162721
1.049286593419093
1.071654829711116
1.0845560288028648
1.0913698634498876
1.0951004116267868
1.0976234699532894
1.1033509453360804
1.1032878796025951
1.1033729607471594
1.1008845440730959
1.0980624837421338
1.0933974136916833
1.0878822172153775
1.0823616491924573
1.0736776075278949
1.0664021833720239
1.0566817848257495
1.04653099325517
1.0342675316530119
1.0230805122105946
1.0070560944296152
0.9901958764043478
1.0076063882902464
1.0925810138744434
1.1316442052784608
1.1455980852553833
1.148118025526383
1.14309880397167
1.141806814512224
1.1420722324467076
1.1397540250209017
1.1343613826248067
1.1321780377348971
1.126628858861274
1.1207738417619526
1.1137749891103335
1.1075605438621803
1.0990155637876877
1.0907383584030317
1.0789326448514769
1.0684500033938658
1.0560518922700592
1.043326371897685
1.0297145734939999
1.0117912461109777
0.9922310763836474
1.1034484771357937
1.1829810196458823
1.2176813406320748
1.2265913936674229
1.219708438310018
1.2023137212003496
1.1926234264210398
1.18515060582734
1.1756163556452943
1.170165816385745
1.1634595002783614
1.155043833881893
1.1453117431547413
1.138599283094529
1.1264354205708593
1.1163411057436956
1.1069174587605048
1.093580941139171
1.0808642962726316
1.067533409604943
1.0515203134634508
1.0376891623658864
1.0180579106216647
0.9957603248966991
1.2103220949203075
1.2798525645091305
1.3072112596179823
1.3019524496868944
1.2910013403578564
1.2679125271722556
1.248471541429533
1.2308745772582408
1.215116430192658
1.2042250918437452
1.1936499088069958
1.1850896307350287
1.1712334363477295
1.1599971277678538
1.145728964735474
1.1357306582139666
1.1241536818721105
1.1092183759609378
1.0944763687964616
1.07988304412001
1.0641717614792063
1.0451169622342302
1.0246049766816387
1.0012003689268407
1.3651229469339485
1.3789810324234093
1.398459051900072
1.3941031379792608
1.3574494461116715
1.32942023294125
1.303587958712956
1.2768219766920257
1.2558922424039596
1.238361531027473
1.2231213461783166
1.2114199334138844
1.1976297319625844
1.183472615859399
1.1698806494188632
1.1544759883540887
1.1415630257201712
1.1269941202600302
1.109519828309836
1.0924081668347845
1.0765637038299871
1.055591041943143
1.0316982374692472
1.005554987943165
0.15004551302666153
0.2934230431824045
0.45219244392652025
0.4785217355363993
0.569288005053049
0.27522889517400606
0.21583629839605079
0.3577962515647536
0.48518686037049935
0.49937161743404745
0.5305566566770358
0.34196176627057295
0.24241259167349904
0.36682102687701124
0.4651508345812879
0.4650332675141055
0.4711426112029442
0.3756478645790078
0.2608404475939061
0.35940395917587364
0.4303244725479211
0.4150417902088869
0.4245609534680118
0.4113214902330233
0.2803916317478182
0.3468505229810063
0.3869846927782471
0.36646127106030457
0.3888910440061724
0.43210885817834155
0.2972273911719209
0.3306912570329434
0.3464639343150549
0.3240242408571158
0.3558160466406945
0.4462974769808889
0.31477751574696355
0.3181419352005313
0.31123760581687543
0.2849585934333339
0.32531235787160734
0.4377781290756539
0.32885353462929917
0.30757649872474846
0.2799006831403036
0.2526275256421715
0.3016085738111832
0.4342729127314004
0.34161064444526484
0.3010529939441886
0.25524486003917474
0.22430972538466157
0.28368771366669693
0.4237259817514127
0.3518270343328739
0.2962289394497085
0.23638546632334922
0.20435045214177355
0.2604027500148749
0.39995367106388424
0.35442330507407527
0.29625541659056964
0.22941746916137332
0.18880292652323225
0.24254698895922555
0.368623590065927
0.3559644716302789
0.29894705119763815
0.22998332034604393
0.18660897506574703
0.23315898201520113
0.34162760747144666
0.35193239285848255
0.3008057842897238
0.2372762078935111
0.20188064538295586
0.24013697336762208
0.35033986936651074
0.3427622746455495
0.30436454716922895
0.2521142303296177
0.21917938008834434
0.26316595821504235
0.3628999842721276
0.33035539487606885
0.3075418623589228
0.26549990882405405
0.2530533191359757
0.2994822782725656
0.36677205924335105
0.31479200421218984
0.31104677442795947
0.2822918797001174
0.2798435889867718
0.32212187556447425
0.3818145384409267
0.2951863610589819
0.3130474409979633
0.299919987741319
0.30674325793088203
0.3489340006989838
0.4069778747816667
0.2700650021568997
0.3152560382677994
0.3156346106158017
0.3322606500327121
0.37166654526757587
0.42180185697047407