/*--------------------------------*- C++ -*----------------------------------*  =========                 |
  \      /  F ield         | OpenFOAM: The Open Source CFD Toolbox
   \    /   O peration     | Website:  https://openfoam.org
    \  /    A nd           | Version:  11
     \/     M anipulation  |
\*---------------------------------------------------------------------------*/
FoamFile
{
    format      ascii;
    class       volScalarField;
    object      U;
}
// * * * * * * * * * * * * * * * * * * * * * * * * * * * * * * * * * * * * * //

dimensions      [0 1 -1 0 0 0 0];

internalField   nonuniform List<scalar> 
2880
( 
0.057867231917137676
0.1835519630085842
0.3316209564113758
0.39123439370430496
0.42002105120045746
0.36094128877957304
0.10664784464548792
0.256863604826441
0.36870327211714965
0.408299196053988
0.4165949632762764
0.3531094609173033
0.1410316228934519
0.28416612788590223
0.37607636759097396
0.402174764329675
0.4055766071802976
0.38006943477907745
0.1720234499557265
0.3062225761966778
0.3788095018254458
0.4015656413082374
0.40265789039553596
0.39877256946773737
0.2038547278868145
0.323592050234468
0.3843883794343994
0.40015295098510756
0.40341122214608044
0.41315719180455845
0.2310557025299807
0.336450461234494
0.3926185301327342
0.40763739148876665
0.41124579560049723
0.4268772048569052
0.25373456247311743
0.3519455853184851
0.3954710028834161
0.41129178887002715
0.4194977527589314
0.4409911015301551
0.27273778304726526
0.3610060699997417
0.40408252311339243
0.42208974995763116
0.4340635506112783
0.458505521631783
0.28951271033560416
0.36772359967900453
0.4089183565951502
0.4289824689388805
0.4458917629379454
0.4761965648255801
0.3050291374156191
0.3741142907246058
0.420288080460555
0.44051327703820475
0.4633721868118953
0.49554732773557625
0.3130756597851803
0.377761226738976
0.4250290867557902
0.4565334587988519
0.48012294247307674
0.5194736197095419
0.3198742926199563
0.38047858592026074
0.43112766571945477
0.47037997437785495
0.5039773581410945
0.5438175872192268
0.32078004088950607
0.37988886947349176
0.44001267352239737
0.4823374368376469
0.5267635821921764
0.5750969517079757
0.31695468030655694
0.38028574268616333
0.44146413783591487
0.4972696767501024
0.5499542068108043
0.6044413419989253
0.3096052745400726
0.37738954645567013
0.4476878156040207
0.5114960601479717
0.5768875541601007
0.6383433602723726
0.29904855172613
0.3731553071391651
0.4522368122622706
0.5263065540180906
0.598560154023469
0.671604398457226
0.286168305196378
0.3689692164564038
0.45720072095669095
0.5346949304625443
0.6257632383842178
0.7121083638156362
0.2670928501566767
0.3608053744870612
0.45553013716393187
0.5482469496149799
0.6454331998523707
0.7518432270570746
0.24545969249078348
0.3522272337812806
0.45193200621719454
0.5537987057913759
0.6690025520215448
0.794396790254498
0.2217299282901843
0.3379264395189814
0.44374145115481345
0.557790606360606
0.6839039599119483
0.8314543789741865
0.1904886149295455
0.3190052479609338
0.4324963384568283
0.5520309136563416
0.6926304893641675
0.8732832549212801
0.1536646715439751
0.2901669727265664
0.4079317536174447
0.5388250352496967
0.6853975789933925
0.9089730310107322
0.11396334769491355
0.24844571583699765
0.3713708972189348
0.5141180327278028
0.6546960191070617
0.9494238012817126
0.06323020300713418
0.1711536988366566
0.2942221823194404
0.46539726523466374
0.5639140859954218
1.08456449539216
0.6084391993083802
0.703704629774556
0.7495841439016497
0.7890867284059226
0.8195538323181605
0.8467096366867919
0.87125654544895
0.8897732734669533
0.9064464482051057
0.921284764759
0.9344290667589618
0.9435626122445456
0.9532340051497271
0.9604720225278364
0.9678567718863683
0.9725609214697747
0.9767227802133667
0.9820376730847529
0.9840753616911034
0.9863571076308038
0.9899863646803072
0.990945862305197
0.9914714218400313
0.9922574748121851
0.5514320047857226
0.6603359313927349
0.7181737018219791
0.7639690721705574
0.7996100320824642
0.8307976337618086
0.8563394786501426
0.8795997539276723
0.8952262556261052
0.9120125297473252
0.9236075072771579
0.9345607876519677
0.9457086857876721
0.9534482736096983
0.9639872290174738
0.9696507709952309
0.9746175405233303
0.9783167556975836
0.9823759627042836
0.9849783988706526
0.9887837010210254
0.9903323479673953
0.9916210061217577
0.9926456602138551
0.5244040768863847
0.6325409133239588
0.6922567124478876
0.7457253346057315
0.7853648436266928
0.8187961023951204
0.8462485791588543
0.8680647075486732
0.8894769833235723
0.9020511217144587
0.9173324970299148
0.9312383157867756
0.943196782130014
0.9519940597699106
0.9596319078194645
0.9664663560757127
0.9705219951354549
0.9773468079987424
0.9809674440047317
0.9852515907086526
0.9881145170883168
0.9910457458345139
0.9928879172000765
0.9940627907537316
0.5085192705308258
0.6116635307859156
0.6759119910275664
0.7306977078967644
0.7759207362772156
0.8095438544354667
0.8380182761483397
0.8603075664068865
0.8794884641619432
0.8990666460756177
0.9127132548656279
0.926543184447959
0.9358279979696293
0.9496725172400984
0.9584748181400544
0.9646286120393928
0.9715598759153126
0.9777657552864059
0.9821939975532972
0.9859811230403154
0.9885087898758229
0.9911413959818292
0.9934771648223638
0.9945836252423149
0.5017971853593344
0.5988316620891738
0.6664393572148869
0.723085476834901
0.7673241722481103
0.8025854557276935
0.8329156629486891
0.8557374089534138
0.8797485359775786
0.8953804320966104
0.9104429502345059
0.9260642569282835
0.9373064881302715
0.9455233934588169
0.9568352130545044
0.9647493159835505
0.9711372945315022
0.9776301834792905
0.982366797654905
0.9861872033912207
0.9893729982922888
0.9919789201587111
0.9932703671224123
0.9948000260858101
0.5023531599457591
0.5948857665833347
0.6618810023430153
0.7205817491994866
0.765093772334956
0.8008635557105371
0.8296079800249192
0.8551399579825791
0.8759982832497273
0.8951339954997561
0.9099798884313407
0.9262380921134495
0.9379915820831819
0.9467540304538663
0.9596479526000354
0.9657339897147194
0.9743346390204207
0.9783239284759322
0.9841095488415605
0.9877993251762007
0.9913028775872282
0.9929951393735604
0.9939414224161341
0.9951897270192709
0.5047553970409528
0.5951060901258018
0.6632178154705675
0.7183410198613072
0.7636329840051902
0.7995203608508537
0.8285571791860267
0.8565846180106201
0.8786712265385542
0.8971595112029322
0.9117213055460632
0.9268293150204172
0.9420342905320129
0.9520764555736368
0.9623531942947566
0.969319515568763
0.9764239261235784
0.9797101494490126
0.9860162286139099
0.9885142629737075
0.9918550267181446
0.994084395442604
0.9948670348958562
0.995000817834423
0.5166762177760165
0.5981067173796668
0.6669554261568673
0.724362044166295
0.7669711145739341
0.8056498263494921
0.8321647764951663
0.860093490404557
0.8806546614195103
0.9009887998027104
0.9173964409596506
0.9313423944523903
0.9471912608721323
0.9582944351001113
0.964933977406796
0.9722971009614234
0.9797118865594523
0.9836913182799415
0.9888303998856631
0.9911758402843327
0.9929066030032582
0.9954922023247679
0.9953614639519531
0.9950262484129365
0.5327108286743438
0.6086711193824501
0.6762335277825808
0.7313462587663743
0.7745417585886399
0.8090086656357119
0.8420086837599758
0.8659360876520026
0.8859445260442016
0.9101059678281973
0.9256624386471796
0.9396651038372809
0.9521460360388838
0.9623024791626149
0.9701074690281083
0.9778103769928745
0.9849582887678215
0.988898463796179
0.9908752731784716
0.9934092151798589
0.9952841899726544
0.9962717068807054
0.9954877235966482
0.9941710463898046
0.5496650145591092
0.6220177111839844
0.6907765294208015
0.7449493445695966
0.7864584371160686
0.8183085301742281
0.8487198589405325
0.8755818938904931
0.8969464108948819
0.9174064702614051
0.9333906174675756
0.9512562477560224
0.9596678029650154
0.9695857699788016
0.9780000853090579
0.9842115243653351
0.9891900871810285
0.9926331676926202
0.9956293877512762
0.9969667745946809
0.9975850569493031
0.9977694921687957
0.995708928130222
0.9931485803650804
0.5742382080547794
0.6464266172106178
0.7083512379860737
0.7609026177465402
0.8006426719795107
0.832760701357413
0.8649178232982848
0.8882494346951615
0.9084712673429376
0.9306986547518601
0.945388648394351
0.9589912036671746
0.9684760216869309
0.9790956254597714
0.9867842096156969
0.9908058686829335
0.9968703277052499
0.9990500303357145
1.0005055811070134
1.0006271557659416
1.000738687978705
0.999478507295478
0.9960883179806264
0.9919221072921287
0.6011762682984985
0.671370020789835
0.7299683188477134
0.7801345025023805
0.8191684793429745
0.8520489524121951
0.8800159266946272
0.9025375492704604
0.9271866732887001
0.9425112465837077
0.9601417949773411
0.9712324763513288
0.9818056663516762
0.9898742264383016
0.9969370665281225
1.0002949167677024
1.0037747248491884
1.00583703854198
1.0055189222735088
1.0049979482768847
1.0035164716045744
1.0010646906872593
0.9962969141236613
0.9903901607903709
0.6315793282903098
0.6993193322699156
0.7584796862663762
0.803032513887234
0.8409082297909019
0.8729789110219356
0.8994685768811963
0.9241721903025149
0.9441106771996464
0.9578758611252861
0.9740977333401034
0.9858362116491621
0.9964781026121377
1.00125297815377
1.006842016393394
1.0116575584427097
1.0118138409910524
1.0133402406921825
1.0115637236181005
1.0094614228295904
1.0064954507039536
1.0033047086194615
0.996202943444776
0.9893292031756024
0.6703698540789911
0.7327793409111153
0.7881587033911818
0.8310730730886855
0.8676330152419135
0.8974110896037129
0.9252887649766285
0.944594671137796
0.965204321894082
0.9810833017388716
0.9923066072637348
1.0023840024869666
1.0101524669191488
1.0161707339807293
1.0195963741698564
1.0214604143013335
1.0205979840940362
1.0207503553846664
1.0184846167389823
1.0152441160929524
1.0110859073855776
1.0052759450118187
0.9970240054304934
0.9879009944786319
0.7124813407905957
0.7748527552966664
0.8253047680231493
0.8630594639851211
0.8977871663462512
0.9267552916233414
0.9514131683672875
0.9727003297222008
0.988311660048283
1.00220948415331
1.0132055360545282
1.021251290018887
1.0259014616029354
1.0312643581512075
1.0334423529155727
1.0331541038860559
1.0314657564770402
1.0291526774283772
1.0257991812496094
1.0209563614511525
1.0153644062149947
1.0087557181131062
0.9981261314021102
0.9873265327726004
0.7559586926183485
0.8208893889692378
0.8665840803682512
0.9019369594543267
0.9325339812873551
0.9594015186681444
0.9790768838506436
1.0002643678479715
1.014442480793679
1.0253450514564768
1.035243962711098
1.0419227539034241
1.045588595788287
1.0476669647232604
1.0486380099565251
1.0473008378943236
1.0446256295363665
1.0398203179621888
1.0347654121398964
1.0278708759005122
1.0209820293362717
1.0128335711741503
1.000194808699343
0.9867177551746942
0.8078907554145032
0.8729989697045566
0.9146061719519607
0.9474158228984846
0.9750155023233193
0.9972437387462331
1.016374098989583
1.030725246303886
1.0441187404477117
1.0531507092696928
1.0599450160052022
1.0646433019235422
1.066186943075377
1.0668264379596606
1.0646746542235879
1.0617695076957614
1.0570134699705211
1.050779423304881
1.0436405588601443
1.035704376256984
1.0266825257514463
1.0176071676883685
1.0030329628869814
0.9875075400154403
0.866400240908812
0.9312786529402841
0.972082286317227
1.000155888429976
1.022110987164697
1.0389685682942686
1.0534385915590712
1.0651655027478204
1.0750637913798855
1.0815608286761726
1.0845245697563977
1.0866471942139941
1.0878409568590037
1.084785308010488
1.082939506264044
1.0772860181613
1.071318910749148
1.0635679639049591
1.055573743896019
1.0451869766856576
1.0354311328460462
1.0230121114691122
1.006921177372084
0.9904956629450189
0.9275765986285489
1.0011913512538124
1.0355311077670286
1.060029518481039
1.0770471816538558
1.0862365435858565
1.0966933152158034
1.1040013195191047
1.1076465660182393
1.1134796913049554
1.1142786927071457
1.1128644260070186
1.1107910428567511
1.1053230165503303
1.101486236309631
1.093447013803164
1.0860702380316636
1.0783300572913768
1.065444083970013
1.0560444232950308
1.0429484768269377
1.029312912733741
1.0117245779452244
0.9921913439713834
1.002664534999259
1.0705659493305022
1.1087007319379474
1.1277035339266928
1.135396764493631
1.1385411569549262
1.1422554082537157
1.1442228891155992
1.1451235660677266
1.1460900266862373
1.1429866850446786
1.1401890589274606
1.1350817524056793
1.1287155594390312
1.120850920275869
1.1131735583456417
1.1032289417846335
1.0919836242428387
1.0796981130846048
1.0657821532512275
1.0530622079990302
1.037321752595021
1.0174467297633452
0.9957349353297993
1.0790261015307356
1.150457528459507
1.1889683572476726
1.2012782596516958
1.2009727017174214
1.1969046426138796
1.1909071827757824
1.1887702153142397
1.1837856079730893
1.1807209110572947
1.1755310653359268
1.1674926479328358
1.1595170731430717
1.1518590848350898
1.1422365902843203
1.1309082598113889
1.1202362834839676
1.106930757140423
1.0943576179196983
1.07936982004838
1.0639328530302539
1.04664719543321
1.0245961713860754
1.0011394015088975
1.1643216161009526
1.2395031324924664
1.2734262735096349
1.2783106970631435
1.2683689971844414
1.2575411868004953
1.2444402695215637
1.2343204286871179
1.227027439914088
1.2170568032931346
1.2069727742918257
1.1967506264794525
1.1857997372055344
1.1752657528253185
1.1640092303383234
1.150999627877194
1.1373006205037337
1.1236497604888216
1.1093023219955775
1.09315956865783
1.0758302228598948
1.0550617718347426
1.032631358026339
1.0070284815612238
1.2609503093848557
1.3322199113049058
1.3561657279876378
1.3597528895197823
1.3425337743384533
1.3207459817417355
1.298764188757029
1.286314751470753
1.2683704922184171
1.2540502578071901
1.2391576160802822
1.2267418457926897
1.2124705114899939
1.1996351221483643
1.1858090648283426
1.1718360339713223
1.1572902885562488
1.1418233959136603
1.124754176894661
1.1066596510825972
1.0871108594463985
1.065979903151238
1.0419016467941704
1.0129807841354066
1.4065653626956667
1.4180869837752232
1.4453681238781222
1.4313545456527579
1.4107396407058583
1.384714906209396
1.355618075115002
1.3335742685567369
1.312310700709999
1.2920374022912413
1.273525030407906
1.2570176789637428
1.240330001324343
1.225155958074163
1.2092128200016474
1.1933304902483524
1.1773123252407394
1.1603182232726443
1.1415441973854588
1.1218482159079763
1.1013155580803209
1.0782751437306757
1.0511699094630516
1.0205704652057808
0.1309715378563423
0.24944422570648567
0.4030535879942545
0.4478707446901007
0.5470064954307899
0.27973663814769334
0.18328216668530173
0.3128657419017713
0.44343296744314054
0.47768851780779176
0.517667496142088
0.3284679501712434
0.20542019501979655
0.32097382108835515
0.42869888927268895
0.44729858322443516
0.4578178382377223
0.343810262400686
0.2242268135783216
0.3249047260289431
0.4027887179022558
0.40134591687389004
0.40317853470042475
0.3502763822662951
0.24351274642575185
0.3164334008217449
0.36994260831075154
0.3566557366948141
0.3586825131452287
0.3562791630440064
0.25656197135970965
0.3051015150338138
0.3336416397425429
0.3134804056767439
0.3177393745631633
0.35704869471497536
0.27023522475480777
0.2964084209169734
0.30107078036552104
0.2747013336371197
0.28568262233593195
0.34771324133525716
0.285151417523681
0.28810105495483607
0.273488256339721
0.24070096400729574
0.2502836311241375
0.324888612043297
0.29681748882694564
0.2820710016504916
0.25179423727592126
0.2135800831162803
0.22275349497412433
0.31228401414333995
0.30382895953542016
0.279154592673082
0.2371133292365158
0.191479551103597
0.2004940756649648
0.28413916357827806
0.30585322245558755
0.27850469504158665
0.22924091625066845
0.1787964557602068
0.1833806727231201
0.26521214451145303
0.31155127242989017
0.27993474555265735
0.2280994332607933
0.1745829217883641
0.1797833882780588
0.24339865043246497
0.3083310058897445
0.280853680842532
0.23316967879315276
0.18394910894928954
0.19123277853241247
0.23861348788991957
0.29905535416908413
0.2839082709562845
0.24361482415270827
0.20966973518821436
0.21258243724195783
0.25408414247966815
0.2869942143634773
0.2862943151507466
0.25701508185952576
0.23382569664237263
0.24214234440271043
0.2802199471812244
0.2715190625271391
0.2901764938068058
0.2703343624530972
0.26075195298663667
0.27326997228203276
0.3063496815384704
0.25260097602661724
0.2898942191934363
0.285449195322784
0.2871303523469949
0.306950051575465
0.3337131246062252
0.23110895108271431
0.2875507770569216
0.29935979216239517
0.30947115233830313
0.3329229962174288
0.35822710457620643
0.2101360332748743
0.28578972475218967
0.311019007538513
0.32939671515000324
0.3550177589344784
0.380883970485673
0.18658084823323345
0.2805833888020757
0.3192343558615685
0.34320999385921064
0.36959551816879976
0.3974496598170435
0.16196407179803837
0.27110154103106043
0.3262808979485038
0.35231975728913395
0.3787937294733846
0.4052492386227243
0.14096170592854168
0.26005547592568523
0.3312781715879493
0.35443393153859315
0.37813719384027106
0.4079736605502742
0.11746877415459595
0.2451945368140463
0.3259929920931737
0.34632228878909127
0.36012637774969775
0.39417191627937
0.07896034510298393
0.2092946206606466
0.3107847917338614
0.319233436284444
0.3086348112488339
0.3564130553187159
1.2844101237326806
1.4679590113354115
1.5215769556673409
1.5040324934702989
1.4797147127878505
1.4507314984872295
1.414792085705842
1.3809022992993332
1.3560250617761804
1.3304321304691888
1.3085302628259439
1.2879644875873177
1.2688876062279997
1.2506937636635076
1.2321747234766844
1.2142069061906307
1.1967324154297936
1.1785906000704442
1.158293036164439
1.13766892459298
1.1155830180903428
1.0902373499489022
1.0614196670732803
1.028411608746078
1.040770820001975
1.4610994232639745
1.5583984453306534
1.557896021814551
1.541390081689951
1.508518052660912
1.465349026141629
1.4297904586765813
1.3977829273736786
1.3674561564110288
1.3439200480052511
1.316100639706708
1.2960837975653294
1.2759510531367138
1.2557407782643755
1.2369030299091657
1.2163427619109863
1.1975787738627148
1.1762946641373302
1.1540027874475958
1.129585936935344
1.1032237264214708
1.0727028296085164
1.0380200406149998
0.8299021131919578
1.389580650870124
1.5560158454377664
1.600522329414661
1.583456932366127
1.5547704907275328
1.5207248195338021
1.4776716646936185
1.4399794999964195
1.40521086453124
1.3769680497088912
1.3491040194402713
1.325281422024653
1.299964128383579
1.280116440318953
1.25818212788804
1.2374748959813378
1.2170868060322517
1.1928990247584208
1.1698428970207015
1.1445322923551886
1.1166301282569389
1.0842256255106746
1.0476033747837086
0.7288345672004791
1.3018060696015545
1.5391088167603848
1.6153257513999422
1.6190482075268133
1.5953987979719821
1.5578218000371136
1.5207891653667456
1.479064347783628
1.4441309388714567
1.4096429129793984
1.381970950661401
1.3548262890421525
1.3267192642956966
1.3047283160412306
1.2810874065361513
1.2575097732082898
1.2340619811587819
1.211611842726291
1.1849276822271297
1.1597896315726905
1.129616374040804
1.0969783881219153
1.0583047239702428
0.668576912149445
1.180906779943744
1.473858198488684
1.587626531328965
1.630309817229858
1.618900309546456
1.597316050797534
1.5512333293750626
1.5160093469964175
1.4770221583545524
1.4453347917039985
1.4114915219688329
1.3824276871031211
1.354621397242116
1.3291088355181153
1.3028131711562692
1.2779121928025519
1.253618266232845
1.2293074054740967
1.2032962765429573
1.1746732019701858
1.14391186134106
1.109013103058762
1.0688251485066038
0.6415614396508338
1.0838757816914995
1.3966959786142004
1.5571030619024022
1.6120578793423137
1.6339581157625191
1.6146922294168682
1.574671487633188
1.5463848711854036
1.5044057046415542
1.4722844179370005
1.4398476950721923
1.407580856973209
1.3785958251869952
1.3523919175233752
1.3238669118072819
1.2977314029178078
1.2738595588613502
1.244859897853334
1.22030665560395
1.1896134172272603
1.1586142901760492
1.1217630813404311
1.0809986879015157
0.6067889681157411
1.0034602431374084
1.3050086280080868
1.4955458263931067
1.584171961075012
1.626877078241262
1.6176130355238425
1.592148404231911
1.5666093545407773
1.535866325843443
1.4968376621810298
1.4650582534794918
1.4309300467324673
1.4039634864923771
1.3745572177280438
1.3454622019730798
1.3182956426137886
1.2896355942287712
1.2637834451933436
1.2359136273355902
1.2040920973272038
1.1715064157215824
1.134243599869886
1.0926529072134852
0.5678833856661694
0.9286237600321243
1.228873406692744
1.4113769337562432
1.5260528747720457
1.583948292693473
1.5954668766981306
1.5951512842274673
1.5678232576465212
1.5455825175193356
1.5163382570610784
1.4868157465382101
1.4545168036329894
1.4228694677944773
1.3953989028749194
1.3660818451873633
1.335693838035271
1.3081668540776314
1.2783626744330843
1.2517945794408085
1.2204623108472745
1.184013899420266
1.1480369614970303
1.1042875887768957
0.5270132730618405
0.8510961337336151
1.1260361601844853
1.3271733025913885
1.4524094044160119
1.5331172510247146
1.5701534541892834
1.5744699552860433
1.5708375709385693
1.550838412464418
1.5246378709894648
1.4987819249414764
1.4678731656376944
1.4411538450624861
1.4127989399418137
1.380801618565302
1.3537043112743485
1.3241599832186148
1.2952986167475222
1.2636679846773071
1.2330952243430424
1.1989099741764693
1.160720264668088
1.1171189028805568
0.4791301735800702
0.781638695186785
1.0432295076432978
1.2442224444849983
1.3778177790890815
1.4706142401379894
1.5129122745359727
1.5449148237549344
1.5449041383822713
1.5369000398892894
1.5203774741910665
1.5006445113423885
1.4778824589229131
1.4504433770057257
1.4199303450791947
1.3919354808384645
1.3658919291798535
1.340366033867294
1.3060465546246438
1.2774827133974713
1.2452506898296625
1.2090294455435346
1.1719784158644182
1.129381184737779
0.4347712594641158
0.6991137689236377
0.9452837010709606
1.1396905017499004
1.2885237406302543
1.3801309860127826
1.4486337458780882
1.4917977110870364
1.5045630816313198
1.5111882977054694
1.5070293572847904
1.488871406850885
1.4727059232001045
1.449724303214183
1.4265709375132367
1.4038307806885593
1.3759097958780362
1.3460350142683495
1.3184393172171487
1.2889637254202901
1.256186697508923
1.2198377574949704
1.1843093941876737
1.1418270873007785
0.39224932289169173
0.6230166604606271
0.8462114674600094
1.0373093417918988
1.192830839052864
1.2950986421890984
1.3625061329554973
1.4126984195777714
1.455908649046196
1.469297082629947
1.4736947858518221
1.4710265061481094
1.4580972110300499
1.439166049890872
1.4238196463786426
1.3997279446961042
1.3760378368958217
1.3508642570374345
1.3258675191846654
1.2978443175216943
1.2651522544102283
1.2318667448330995
1.1950485538367228
1.154432169334557
0.3534052644210013
0.5498297608650242
0.7619880963244792
0.9334483619072667
1.082765538107687
1.1964863606734069
1.283018370979611
1.3500356841676293
1.385669873539928
1.4089112705605662
1.4246184641690152
1.4294854654031093
1.4257271376357337
1.4194987100747933
1.4054340364794515
1.3934433716954984
1.3738325450116673
1.3492903371448404
1.3256425794462734
1.2998402096809536
1.2677587832958714
1.2391960581250223
1.2028473367213688
1.1622625788131253
0.34941099819880106
0.4946606023696632
0.6706172891489368
0.8327764153801851
0.9787923410043331
1.0824936216793384
1.1753029347946407
1.2518293249164545
1.304043115900642
1.3401364311661605
1.3663886968930157
1.3741924233427416
1.3826629742668022
1.3842640841141827
1.373526086279566
1.3680793373964688
1.3506905752802043
1.334664163229607
1.3165783675021014
1.2946090131278998
1.2682166291094488
1.2399379009018827
1.2081481839123915
1.1723942824794351
0.3488927172848787
0.4552100356272365
0.5925586684357448
0.7379476990310743
0.8710039900434609
0.9799296514547722
1.0799478619348082
1.1568825567926244
1.2094212624650238
1.2507891646655556
1.2855554001435179
1.3123255066474755
1.3214166660692852
1.3330560961129734
1.3326646888391556
1.3317111926547316
1.3231244112722433
1.3115596113620833
1.295977577442317
1.2789646176867353
1.2579145550890565
1.2340800729261285
1.2079148081338635
1.1762224708092945
0.35012708413993965
0.42320894472466924
0.5371111646750844
0.6528130467921575
0.7856470128672342
0.8990673921553896
0.9864298408565836
1.060739036483991
1.1256151876986618
1.1697378510356158
1.2004042596763667
1.235304562774629
1.251751683815281
1.2681610525382423
1.276341433664362
1.279922719274201
1.2825501979438885
1.2749287518252583
1.2674592865319338
1.255020664845323
1.2400525199599317
1.2199878657870544
1.1995778285156358
1.175170783565831
0.35768881591185053
0.41181757060942514
0.49249850970487236
0.5921061358979831
0.7126261363844066
0.8120630445745461
0.9036737737325963
0.978038399038574
1.0407012530243556
1.0811695189762078
1.1230037964840798
1.1501049732902255
1.1711930036602713
1.1933507185411212
1.212877284389649
1.2202161595875514
1.2266584220722276
1.2283480672022902
1.2285396404712658
1.2220628545665377
1.211600651158388
1.2002113244068098
1.1837156676381688
1.1642734396378136
0.37529339299879805
0.40044959348102976
0.4546765656137216
0.5450774893644601
0.649357722802478
0.7414225064385205
0.8239489531990374
0.8947236201992703
0.9510874906478677
0.9997605127681073
1.038890600274838
1.0703439064432394
1.097688737536812
1.1166777104018544
1.1334616033319418
1.1487437488399956
1.1624875723056904
1.1703040081996956
1.1762360748112306
1.1785589684218138
1.1742577694922791
1.1680013121403603
1.1584274519700462
1.147046809454808
0.3825883855191356
0.3816949438007435
0.4263074126561338
0.5069982070916289
0.5848935487189598
0.6726564715055501
0.7533019476836125
0.8107671191848478
0.8760601225747513
0.9189283835288434
0.9548670596456414
0.9905728947749618
1.018468040859502
1.0397410218377339
1.0586937129805025
1.0716283276242988
1.091233530786237
1.103522023762666
1.1156337156113143
1.121926083018924
1.1283865389219205
1.1284474365150197
1.1257928643123492
1.1194015754237034
0.39022225945696287
0.37234395281713667
0.39947378890468166
0.4637611009181899
0.5351110696771016
0.6046325450926664
0.6848641192607674
0.7433682796647261
0.7941960126422611
0.8361329059335562
0.8748469442540988
0.9035348879350521
0.9278587924418457
0.9556594961766776
0.9821773735173697
1.000878664091341
1.0230518014724463
1.0364367594408614
1.0498298225340368
1.062781792283303
1.0720674765755052
1.0808741879496004
1.082187159779388
1.0858409332690282
0.3884892311519903
0.35467089389860357
0.3725551910350057
0.4208913410297598
0.48920354422681117
0.5514253891507481
0.6150877809179176
0.670247749786641
0.7250924191569637
0.7495129713253086
0.7885048191632578
0.8244327931707209
0.8489487117507931
0.8673830404359285
0.8949254957753933
0.9164869802639382
0.9404564987099389
0.9637030701310878
0.9835242776948614
1.000111942106857
1.0158313919968232
1.0273789573250858
1.0375051903332049
1.0455721308514678
0.37550855562285873
0.3342626269976263
0.3483128313695073
0.3848716668142962
0.44622692980305767
0.5080640859961525
0.5534572776813826
0.6013289748736206
0.6426971770400607
0.6766792406696158
0.7033614089712027
0.7325105242078105
0.7628130530790262
0.7844202423477921
0.8179907408629445
0.8374505819620451
0.8671085670149719
0.8938892975533669
0.9180314879970134
0.9422281300361516
0.9587579856381901
0.9750348180051953
0.9889565749890029
1.0038411251977701
0.33971852083593246
0.32045448900199736
0.32305228621807325
0.36080129796434623
0.3994114330532966
0.44868948795252006
0.5002810608850046
0.5284690585170706
0.5667083283526143
0.5939944967264101
0.6240156805186198
0.6482522255035883
0.6795388441969096
0.7105988716717988
0.7418839743353729
0.770704018796807
0.7984871796351836
0.8309116055389787
0.8527377995124027
0.8805432420833131
0.9010286287578616
0.9196671948064808
0.9356239642675792
0.9563360088484426
0.2887646095249422
0.2883782278514583
0.2983946660407164
0.32554922935615627
0.35723351183722174
0.39342402583904135
0.4349219097084679
0.46318870881569274
0.48603011687216036
0.5148419598033348
0.5471823704376898
0.5834347734623163
0.6021643595250095
0.6311133250637296
0.668302356806715
0.7034596992693045
0.7409280262410879
0.7691408459637399
0.7977604745205548
0.8199575896448705
0.8439053340219235
0.867913391940433
0.8844694482513284
0.9094205747747174
0.048136067260165484
0.1250183225275199
0.22038747870281172
0.26729833789296004
0.28654195322107756
0.29606894518566795
0.08368569217798662
0.17433867135428788
0.24228815412306276
0.27328001087726406
0.28320448972313117
0.2775067873994388
0.1027135607303889
0.18892018276432523
0.24643955375721713
0.26618132123580734
0.2689172909327997
0.25259797691001434
0.1199718918139005
0.20178724209736623
0.2474637353496465
0.2568642645210337
0.25470435094243565
0.2322351671759098
0.13785290438276315
0.20980636644856354
0.24430052611121875
0.24859702057348365
0.2385147576332917
0.2193040001153676
0.15322998755922823
0.21606806786260055
0.24321605302639027
0.2385585085065201
0.2269992793585041
0.2088766511069375
0.17106002456351668
0.22115946030754288
0.24070572744657043
0.23038997640187997
0.21365817734587
0.1962105122101794
0.18362578744488978
0.224140742111615
0.2423761044327646
0.22894811190839182
0.20939423306277716
0.19117274207437743
0.1936601581499499
0.22768356353982497
0.23942988305840837
0.2257358856508605
0.20477740692530136
0.1792892563935573
0.20031880559578183
0.23117515910329064
0.23950083462076227
0.22329399433098585
0.20418474207591067
0.1782760587729538
0.20239464905925972
0.2298528950055331
0.24013365326635508
0.22889815037596337
0.20704380045177204
0.17485565801395914
0.20879448239744786
0.2306482441400718
0.2403584630012916
0.23230386612857626
0.20990859642125095
0.17716811019736045
0.209029825594209
0.2319540442402421
0.24397645060439452
0.2363729288997774
0.21661730347061336
0.1775739988984041
0.21196587756689086
0.23085515951480032
0.24661816066543546
0.24129777684404777
0.21830075303746121
0.1824859109844329
0.2060842473479799
0.23101028230230145
0.25116084385773263
0.24945395644199841
0.22533096740069183
0.18668320814854922
0.20119527601774562
0.22825744291436323
0.25641576881327555
0.2528108033808347
0.2341624033955216
0.18667303956299203
0.19736655079024107
0.227639595167042
0.2583413588320162
0.2587594307606156
0.24091920178652382
0.19405069102114963
0.18779745784355784
0.2251518453935459
0.2613882902844056
0.2721352439621158