/*--------------------------------*- C++ -*----------------------------------*\
  =========                 |
  \\      /  F ield         | OpenFOAM: The Open Source CFD Toolbox
   \\    /   O peration     | Website:  https://openfoam.org
    \\  /    A nd           | Version:  11
     \\/     M anipulation  |
\*---------------------------------------------------------------------------*/
FoamFile
{
    format      ascii;
    class       volScalarField;
    location    "1.26";
    object      epsilon;
}
// * * * * * * * * * * * * * * * * * * * * * * * * * * * * * * * * * * * * * //

dimensions      [0 2 -3 0 0 0 0];

internalField   nonuniform List<scalar> 
2880
(
2.28693
3.39341
4.1245
4.04618
3.36216
3.19364
0.960932
1.57959
2.01089
2.11009
1.98184
2.27821
0.25565
1.3225
1.65506
1.72848
1.71255
1.9779
1.18943
1.33696
1.57496
1.6287
1.64343
1.86276
1.38476
1.42387
1.56856
1.61192
1.63946
1.82474
1.68612
1.5056
1.59101
1.62886
1.66694
1.82697
1.91909
1.56963
1.62265
1.65974
1.70605
1.85024
2.10263
1.61572
1.65353
1.69375
1.74652
1.87998
2.24529
1.64518
1.68047
1.72614
1.78331
1.90803
2.35175
1.66127
1.70335
1.75537
1.81441
1.93
2.42599
1.66885
1.72345
1.78175
1.8395
1.9438
2.47271
1.67205
1.74247
1.8067
1.85998
1.95022
2.48002
1.67125
1.76222
1.83234
1.87842
1.95155
2.44666
1.66621
1.78484
1.86125
1.89816
1.95109
2.36891
1.65771
1.81244
1.89651
1.92322
1.95193
2.24819
1.64659
1.84665
1.94221
1.95859
1.95834
2.08411
1.6329
1.88924
2.00315
2.01139
1.97591
1.87636
1.61629
1.94184
2.08666
2.09301
2.01078
1.62597
1.59627
2.00597
2.20225
2.21872
2.08015
1.33959
1.57294
2.0812
2.36562
2.41543
2.22084
0.280167
1.54848
2.16786
2.60331
2.73691
2.51184
0.255446
1.55286
2.28625
2.96918
3.30062
3.18883
0.959284
1.70106
2.57013
3.61547
4.41965
5.15614
2.19971
2.7711
3.89447
5.41417
6.23913
6.14016
6.41536
5.67419
4.40957
3.30031
2.37587
1.63607
1.07751
0.683774
0.423894
0.261398
0.163285
0.104807
0.0697275
0.0482617
0.0347695
0.0260442
0.0202548
0.0163445
0.0137011
0.0119721
0.0109567
0.0105638
0.0108255
0.0117969
6.15697
5.83018
4.76045
3.70125
2.7819
2.00445
1.3803
0.91214
0.584056
0.367742
0.231698
0.148503
0.0980271
0.0671272
0.0478333
0.0354907
0.0274187
0.0220771
0.0185838
0.0164335
0.015331
0.0151188
0.0157111
0.0170414
4.71341
5.99571
5.14702
4.03535
3.13979
2.36331
1.70506
1.17849
0.785072
0.509563
0.327083
0.211075
0.138974
0.0943587
0.0664821
0.0487576
0.0372927
0.0298285
0.0250631
0.0222393
0.0208949
0.0207559
0.0215815
0.0232269
3.32961
5.93775
5.50187
4.37583
3.45097
2.69027
2.02863
1.46868
1.02245
0.689248
0.455036
0.298496
0.197532
0.133607
0.0932423
0.0675494
0.0510208
0.0403676
0.0336548
0.0297314
0.0278738
0.0276365
0.0285981
0.0305212
2.73888
5.35565
5.60291
4.83691
3.76597
2.98403
2.33151
1.76344
1.2845
0.903438
0.618114
0.416038
0.279265
0.189538
0.131607
0.0943332
0.0702978
0.0548434
0.0451311
0.0394254
0.0366136
0.0360038
0.0369727
0.0391134
2.46729
4.38297
5.54628
5.17561
4.14492
3.26615
2.60338
2.04144
1.55234
1.14095
0.813048
0.565943
0.388969
0.267307
0.185993
0.132491
0.0975603
0.0749526
0.0606492
0.052101
0.047639
0.0462169
0.0469985
0.0492409
2.32608
3.64991
5.22115
5.2575
4.62876
3.59622
2.86266
2.29416
1.80802
1.38539
1.0298
0.745062
0.528469
0.371179
0.261148
0.186214
0.136101
0.103113
0.0819112
0.0689238
0.0617358
0.0587976
0.0590836
0.0612129
2.25291
3.19903
4.61071
5.20705
4.92629
4.03264
3.15617
2.53176
2.04023
1.61881
1.25257
0.943553
0.694257
0.502332
0.360717
0.259824
0.189891
0.142537
0.11132
0.0915974
0.0800778
0.0745418
0.073676
0.0754956
2.21467
2.9275
4.05095
4.97024
4.98485
4.50191
3.5303
2.7926
2.25805
1.83169
1.46534
1.14672
0.87666
0.656754
0.485109
0.35627
0.262791
0.196965
0.152005
0.122496
0.104352
0.0945926
0.0914332
0.0926648
2.19058
2.755
3.63349
4.55696
4.92369
4.72444
4.00633
3.13746
2.49922
2.03312
1.66004
1.34014
1.06188
0.824772
0.62964
0.475059
0.356969
0.26975
0.207448
0.164646
0.136865
0.120559
0.113413
0.113459
2.16934
2.63606
3.33856
4.15553
4.73161
4.74761
4.39739
3.56719
2.80981
2.25659
1.84733
1.51873
1.23799
0.993902
0.784819
0.610849
0.470932
0.362158
0.280408
0.221226
0.180474
0.154664
0.141282
0.1387
2.14607
2.54386
3.12506
3.82418
4.44138
4.68475
4.54816
4.00864
3.21272
2.5508
2.06206
1.69662
1.40379
1.15497
0.939699
0.754757
0.599096
0.471952
0.371354
0.294431
0.23806
0.199524
0.176925
0.169676
2.11901
2.46325
2.95862
3.55964
4.14882
4.53076
4.55181
4.29847
3.64877
2.93288
2.34942
1.91085
1.57865
1.31337
1.08951
0.897436
0.733071
0.593446
0.47758
0.384198
0.311502
0.257805
0.222657
0.207913
2.08867
2.38615
2.81569
3.33969
3.88135
4.31297
4.49052
4.39989
4.01221
3.36219
2.73052
2.20829
1.80541
1.4956
1.24858
1.04304
0.868433
0.719839
0.593371
0.487162
0.4001
0.331146
0.280875
0.255156
2.05657
2.30844
2.68153
3.14218
3.63456
4.07273
4.35081
4.3871
4.21323
3.75135
3.16402
2.60477
2.13062
1.75196
1.45335
1.21426
1.01897
0.855976
0.717875
0.600558
0.50159
0.419368
0.353594
0.313333
2.02482
2.22849
2.54785
2.95126
3.39476
3.81774
4.14327
4.29748
4.25469
4.00939
3.5582
3.04807
2.55425
2.11904
1.75572
1.46037
1.22189
1.02769
0.867244
0.732996
0.619874
0.524487
0.444051
0.385989
1.99614
2.14655
2.41133
2.75859
3.15095
3.54424
3.88268
4.10786
4.17579
4.08561
3.81992
3.42913
2.99388
2.56129
2.16347
1.8166
1.5241
1.28146
1.08107
0.915128
0.77702
0.661418
0.563679
0.483395
1.9744
2.06476
2.27268
2.56304
2.89983
3.2502
3.57401
3.82721
3.97191
3.98668
3.87819
3.63712
3.31597
2.95481
2.58591
2.23391
1.91382
1.63213
1.38947
1.18305
1.00879
0.86167
0.738782
0.62933
1.96429
1.98621
2.13603
2.36976
2.6475
2.94338
3.22903
3.47344
3.64612
3.72839
3.71406
3.60579
3.40819
3.15394
2.8666
2.56724
2.27258
1.99457
1.74021
1.51229
1.31153
1.13561
0.986444
0.847928
1.96561
1.91577
2.00727
2.18858
2.40848
2.64405
2.87472
3.07958
3.2395
3.336
3.36907
3.33358
3.2325
3.0765
2.88229
2.66427
2.43561
2.20677
1.98595
1.77833
1.58667
1.41184
1.25902
1.1157
1.98975
1.85636
1.89244
2.03106
2.20169
2.38106
2.55252
2.7022
2.81814
2.89029
2.91971
2.9052
2.84683
2.75125
2.62671
2.48123
2.32236
2.1567
1.98962
1.82592
1.66983
1.52409
1.39458
1.281
2.05682
1.80717
1.79728
1.90735
2.04467
2.18463
2.31092
2.40906
2.47104
2.49886
2.49619
2.46055
2.39833
2.31557
2.21787
2.11011
1.99642
1.88031
1.76469
1.65205
1.5444
1.44374
1.35403
1.27655
2.19403
1.7633
1.72484
1.82461
1.9553
2.08549
2.1976
2.27149
2.3054
2.30707
2.26922
2.20078
2.1109
2.00757
1.89742
1.78553
1.67558
1.57012
1.47086
1.37899
1.29582
1.22319
1.16335
1.11523
2.39566
1.71833
1.67135
1.78237
1.92244
2.06038
2.17879
2.25321
2.28485
2.28026
2.23109
2.14948
2.04644
1.93124
1.81129
1.69199
1.57701
1.46871
1.36844
1.2768
1.19436
1.12229
1.06243
1.0146
1.92274
2.99593
6.02277
6.78205
6.6055
6.17949
0.836342
2.32792
3.61881
3.93204
3.99405
4.22463
0.234737
2.07079
2.72166
2.81984
2.70724
2.44192
0.261956
1.89624
2.28017
2.27076
2.10386
1.8403
1.1861
1.77081
2.00117
1.93739
1.77673
1.58736
1.30484
1.65972
1.79894
1.71381
1.57753
1.45905
1.44252
1.55847
1.64193
1.55287
1.44417
1.37838
1.54705
1.46789
1.51497
1.4291
1.34745
1.31373
1.62024
1.3891
1.40919
1.32906
1.26877
1.25475
1.66341
1.31993
1.31886
1.24476
1.19832
1.19748
1.67669
1.25907
1.24026
1.17084
1.13191
1.14098
1.66712
1.20584
1.17104
1.10363
1.06868
1.08595
1.63455
1.16113
1.10955
1.04124
1.00857
1.03474
1.59097
1.1254
1.05459
0.982799
0.952104
0.990801
1.53459
1.09554
1.00489
0.927815
0.900274
0.958243
1.46396
1.0666
0.958689
0.875921
0.854102
0.941558
1.37594
1.02901
0.913098
0.826768
0.81417
0.944987
1.24993
0.962094
0.863833
0.780416
0.77997
0.973011
0.280006
0.826799
0.807369
0.739004
0.751493
1.03373
0.269112
0.715496
0.753158
0.704631
0.730854
1.12871
0.253937
0.652341
0.720737
0.684804
0.723348
1.22679
0.232809
0.664246
0.736131
0.702643
0.741103
1.32984
0.879195
0.884219
0.890478
0.838512
0.834051
1.54191
2.21609
2.10836
1.88137
1.6621
1.38522
1.54458
2.21712
1.64941
1.63407
1.77023
1.9345
2.10439
2.25678
2.36199
2.41109
2.41771
2.36832
2.27852
2.16315
2.03423
1.9005
1.7685
1.64253
1.52508
1.41741
1.31974
1.23214
1.15501
1.08887
1.03411
1.87483
1.57177
1.6166
1.78452
1.98949
2.21094
2.418
2.5752
2.66011
2.68927
2.64976
2.55946
2.43678
2.29807
2.15482
2.01429
1.88078
1.75659
1.64262
1.53916
1.44594
1.36237
1.28654
1.21898
1.64609
1.51589
1.61588
1.81725
2.06986
2.35254
2.62045
2.81876
2.9135
2.90693
2.82916
2.71088
2.57238
2.42459
2.27635
2.1338
2.00067
1.87884
1.76891
1.67065
1.58329
1.50569
1.43491
1.3651
1.52322
1.48458
1.62603
1.85837
2.15958
2.50368
2.8168
2.995
3.02375
2.96375
2.84904
2.7032
2.54256
2.38072
2.22635
2.0839
1.95508
1.84005
1.73799
1.64757
1.56743
1.49655
1.4335
1.3648
1.45048
1.47182
1.64161
1.9033
2.25641
2.66451
2.97633
3.09976
3.02597
2.82511
2.58154
2.3455
2.12949
1.93934
1.77671
1.63984
1.52554
1.43021
1.35037
1.28242
1.22432
1.17239
1.13296
1.07999
1.40219
1.46914
1.6605
1.95714
2.38195
2.86722
3.15492
3.13809
2.85432
2.41563
2.028
1.7119
1.44813
1.23496
1.06517
0.93106
0.825528
0.742247
0.677148
0.625067
0.584873
0.547118
0.525137
0.487833
1.36625
1.46804
1.6827
2.03326
2.57797
3.15009
3.36518
3.14768
2.55633
1.98423
1.5596
1.24067
1.00252
0.815761
0.66627
0.547092
0.453065
0.379271
0.321636
0.276791
0.24215
0.213329
0.193125
0.170036
1.33415
1.46395
1.71085
2.15359
2.89128
3.52885
3.52516
3.03465
2.23268
1.67371
1.2948
1.02138
0.808836
0.637776
0.499985
0.390417
0.305173
0.240529
0.192013
0.155349
0.127777
0.106529
0.0910292
0.0781557
1.29992
1.45662
1.75659
2.36762
3.3778
3.89774
3.61567
2.73304
1.94495
1.44893
1.11298
0.865954
0.671195
0.51657
0.395634
0.302214
0.230577
0.175942
0.13466
0.103916
0.0814237
0.0654125
0.0546151
0.0480597
1.26214
1.45291
1.85338
2.76676
4.02067
4.16174
3.55766
2.39467
1.69325
1.25109
0.937973
0.703264
0.52288
0.386806
0.286469
0.213557
0.160823
0.122483
0.0942813
0.0733488
0.0577864
0.0465149
0.0392139
0.0361427
1.22398
1.46949
2.05692
3.46548
4.59666
4.27412
3.09297
2.05879
1.45698
1.05732
0.771165
0.557989
0.400099
0.286252
0.205612
0.149047
0.109579
0.0821242
0.0630531
0.0498133
0.040699
0.0346996
0.0313324
0.0305405
1.19277
1.53666
2.45935
4.45681
4.84443
4.09857
2.60695
1.75417
1.23427
0.876789
0.619862
0.435103
0.305719
0.216375
0.154878
0.112379
0.0828288
0.0622257
0.0479517
0.0382801
0.0320601
0.0284976
0.0271141
0.027402
1.17958
1.70156
3.24078
5.21169
4.89725
3.43993
2.18933
1.48709
1.03047
0.711198
0.486586
0.333325
0.230428
0.161654
0.115509
0.0842774
0.0629308
0.0482488
0.038201
0.031517
0.0273912
0.0252842
0.0248653
0.0255023
1.19823
2.02727
4.49334
5.4528
4.58177
2.82533
1.85276
1.25132
0.842425
0.562315
0.376096
0.254089
0.174325
0.121879
0.0870754
0.0637623
0.0480476
0.0374658
0.0304522
0.0260124
0.0235066
0.0225195
0.0227153
0.0236453
1.27049
2.61159
5.62336
5.45037
3.87023
2.41348
1.57649
1.03491
0.674536
0.440109
0.290134
0.194624
0.133397
0.0936295
0.0674078
0.049893
0.0381195
0.0302526
0.0251403
0.0220456
0.0204776
0.0201103
0.0205757
0.0216513
1.42677
3.6787
6.01503
5.15982
3.21457
2.04923
1.31948
0.840542
0.533765
0.342059
0.223372
0.149438
0.102664
0.0725036
0.0526956
0.0395015
0.0306639
0.0248024
0.0210582
0.0188852
0.0179145
0.0178941
0.0185019
0.0195767
1.68577
5.1267
6.03982
4.56897
2.8175
1.76514
1.09346
0.673236
0.417941
0.264808
0.172369
0.115536
0.079779
0.056759
0.0416436
0.0315823
0.0248627
0.0204396
0.0176643
0.0161244
0.0155405
0.0156881
0.0163848
0.0174
2.07067
6.28763
5.91463
4.00796
2.44231
1.47883
0.885193
0.531838
0.325852
0.205486
0.133831
0.0900508
0.0625591
0.0448557
0.0332171
0.0254612
0.0202823
0.0168857
0.0147801
0.0136539
0.0132953
0.0135178
0.0142158
0.0151514
2.67421
6.7624
5.74262
3.52981
2.10385
1.22437
0.70892
0.417688
0.253847
0.159914
0.104441
0.0706185
0.0493676
0.0356609
0.0266315
0.020601
0.0165657
0.0139162
0.0122783
0.0114169
0.0111736
0.0114061
0.0120484
0.0128951
3.71987
6.87052
5.38227
3.16959
1.78665
0.993379
0.560269
0.32655
0.198031
0.124992
0.0819443
0.0556773
0.0391455
0.0284606
0.0214051
0.0166782
0.013501
0.0114011
0.0100908
0.00939217
0.00918891
0.00938302
0.00993242
0.0106857
5.3527
6.94266
5.06457
2.75229
1.464
0.787758
0.438412
0.254822
0.154822
0.0980719
0.0645681
0.0440724
0.0311398
0.0227604
0.0172117
0.0134795
0.0109538
0.0092637
0.00818419
0.00757876
0.00736263
0.00747765
0.00790228
0.00855555
7.78162
7.43181
4.56237
2.2903
1.16814
0.617181
0.342028
0.199143
0.121444
0.077248
0.0510659
0.0349951
0.0248239
0.0182151
0.0138252
0.0108584
0.00883321
0.0074545
0.00654167
0.0059854
0.00572027
0.00571663
0.00597663
0.00650937
9.72426
7.69632
3.76722
1.81825
0.908245
0.478022
0.265892
0.155713
0.0954973
0.0610413
0.0405184
0.027864
0.0198248
0.0145835
0.0110888
0.0087142
0.00707711
0.00593982
0.0051534
0.00462423
0.00429317
0.00413272
0.00417578
0.00452239
12.3154
7.25221
3.06508
1.39767
0.693068
0.367764
0.206595
0.122019
0.0753424
0.0484129
0.0322665
0.022258
0.0158719
0.0116916
0.00889206
0.00697797
0.00564428
0.00469839
0.00401561
0.00351202
0.00312664
0.00281603
0.00257794
0.00256167
2.23239
4.32335
6.50069
7.12947
7.34117
31.8961
0.935068
2.12057
3.45434
4.42124
5.15719
9.36784
0.250034
1.7454
2.79546
3.62561
4.12346
5.07884
0.269955
1.6639
2.52066
3.12622
3.31573
3.35111
0.280443
1.67138
2.35613
2.71116
2.65355
2.41438
1.27452
1.69435
2.23142
2.37041
2.15471
1.78147
1.37408
1.71047
2.12586
2.10889
1.77388
1.37262
1.45366
1.71761
2.03189
1.90773
1.48908
1.10005
1.511
1.71436
1.94986
1.74251
1.27984
0.911799
1.54757
1.69881
1.87844
1.60634
1.12583
0.777687
1.5668
1.67233
1.81655
1.49943
1.01095
0.67989
1.574
1.63736
1.7632
1.42077
0.925418
0.607701
1.57235
1.59626
1.71905
1.36781
0.863137
0.554451
1.54794
1.55045
1.68611
1.33726
0.82038
0.515861
1.49535
1.50074
1.6643
1.33051
0.795205
0.489249
1.41565
1.44674
1.65254
1.34187
0.788552
0.473135
1.31637
1.38647
1.64873
1.37622
0.799099
0.467057
1.21501
1.31588
1.64867
1.43401
0.833572
0.471732
0.280665
1.22711
1.64936
1.51603
0.900938
0.489696
0.268845
1.13907
1.64618
1.62204
1.01831
0.527203
0.250298
1.04019
1.63637
1.74991
1.21863
0.600241
0.226335
0.953224
1.60525
1.91306
1.5662
0.758778
0.840377
0.945945
1.56747
2.16964
2.17696
1.22596
1.89561
1.52797
1.90234
2.85757
3.22829
2.99037
14.8137
5.02296
2.12012
1.01456
0.520899
0.282222
0.160753
0.0959116
0.0596731
0.0385613
0.0258076
0.0178558
0.012758
0.00940673
0.00715199
0.00560103
0.00451011
0.00372366
0.00313888
0.0026838
0.00230292
0.00195106
0.0015976
0.00109377
6.43943
2.95572
1.46625
0.747061
0.394145
0.217408
0.12558
0.0757373
0.0474997
0.0308746
0.0207516
0.0144026
0.0103136
0.00761521
0.00579308
0.00453473
0.00364544
0.00300075
0.00251863
0.00214196
0.00182694
0.00153879
0.00125155
0.000867939
3.77065
2.05561
1.06809
0.556511
0.299671
0.16837
0.0986993
0.0601809
0.0380426
0.0248697
0.0167871
0.0116897
0.00839329
0.00621112
0.00473394
0.00371185
0.00298865
0.00246437
0.00207309
0.00176854
0.00151407
0.00128058
0.00105243
0.000768486
2.5362
1.45175
0.777117
0.416209
0.229641
0.131535
0.0782131
0.0481786
0.0306789
0.0201637
0.0136668
0.00954908
0.00687664
0.0051029
0.0039
0.00306667
0.00247665
0.00204887
0.0017297
0.00148114
0.00127267
0.00108135
0.00089942
0.000688152
1.74865
1.03711
0.573091
0.315811
0.178307
0.103914
0.0625663
0.0388863
0.0249224
0.0164597
0.011199
0.0078502
0.00567003
0.00421986
0.0032349
0.00255188
0.00206794
0.0017169
0.00145489
0.0012507
0.00107932
0.000923281
0.000779604
0.000622322
1.26584
0.763269
0.432568
0.244172
0.140543
0.0830917
0.0505536
0.0316575
0.0204017
0.0135306
0.00923706
0.00649384
0.00470334
0.00351031
0.00269914
0.00213629
0.00173738
0.00144804
0.0012322
0.00106427
0.000923864
0.00079783
0.000685631
0.000568956
0.954229
0.57972
0.334758
0.192531
0.112506
0.0672765
0.0412741
0.0260043
0.0168341
0.011203
0.0076695
0.00540523
0.0039245
0.0029368
0.00226496
0.00179887
0.00146878
0.00122969
0.00105182
0.000914044
0.000799759
0.00069897
0.00061218
0.000526022
0.747133
0.454378
0.265613
0.154805
0.0914671
0.0551627
0.0340578
0.0215585
0.0140047
0.00934493
0.00641149
0.00452778
0.0032945
0.00247161
0.00191217
0.00152455
0.00125062
0.00105286
0.000906461
0.000793886
0.000701515
0.000621645
0.000555012
0.000491661
0.605234
0.36676
0.21579
0.126825
0.0754942
0.0458012
0.0284066
0.0180421
0.0117497
0.00785523
0.00539807
0.00381825
0.00278362
0.00209372
0.00162545
0.00130185
0.00107404
0.000910439
0.000790207
0.000698643
0.000624474
0.000561629
0.000510699
0.000464259
0.505147
0.30401
0.179173
0.10575
0.0632253
0.0385021
0.0239502
0.0152452
0.00994422
0.00665623
0.00457913
0.00324318
0.00236879
0.0017867
0.00139271
0.00112157
0.000931757
0.000796444
0.000697928
0.000623758
0.000564515
0.000515303
0.000476441
0.000442472
0.432845
0.25806
0.151756
0.0896449
0.0536959
0.032762
0.0204123
0.0130087
0.00849236
0.00568797
0.00391571
0.00277639
0.0020318
0.00153745
0.0012042
0.000976156
0.000817691
0.000705771
0.000625191
0.000565291
0.000518138
0.000479698
0.000450029
0.000425228
0.379673
0.223773
0.130883
0.0771718
0.0462172
0.0282115
0.0175861
0.0112116
0.00732055
0.00490392
0.00337735
0.00239721
0.00175815
0.00133541
0.00105193
0.000859328
0.000726708
0.00063407
0.000568205
0.000519905
0.000482442
0.000452438
0.000429748
0.000411686
0.340172
0.197811
0.114767
0.0673966
0.0402923
0.0245779
0.015316
0.00976161
0.00637198
0.0042678
0.00294005
0.0020892
0.00153615
0.00117196
0.000929314
0.000765849
0.000654488
0.000577666
0.000523789
0.000484838
0.000455084
0.00043166
0.000414283
0.000401175
0.310809
0.177959
0.102178
0.0596549
0.0355592
0.0216582
0.0134843
0.00858816
0.00560268
0.00375126
0.00258484
0.00183923
0.00135636
0.00104009
0.000830918
0.000691368
0.000597429
0.000533506
0.000489322
0.000457855
0.00043421
0.000415924
0.000402615
0.000393153
0.289258
0.162711
0.0922528
0.0534673
0.0317509
0.0193006
0.012002
0.00763704
0.00497854
0.00333205
0.00229671
0.00163676
0.00121115
0.000934044
0.000752268
0.000632285
0.000552558
0.000499087
0.000462686
0.000437179
0.000418369
0.000404116
0.000393952
0.00038717
0.274
0.151025
0.0843754
0.0484829
0.0286694
0.017391
0.0108012
0.00686665
0.0044731
0.00299275
0.00206375
0.00147339
0.00109435
0.000849136
0.000689691
0.000585644
0.000517445
0.000472387
0.000442196
0.000421412
0.000406431
0.000395368
0.000387666
0.000382844
0.264093
0.142176
0.0781045
0.0444419
0.0261671
0.0158438
0.00983064
0.00624515
0.00406591
0.00271974
0.00187659
0.0013424
0.00100099
0.000781571
0.000640197
0.000549032
0.000490115
0.000451787
0.000426522
0.000409464
0.0003975
0.000388969
0.000383229
0.000379846
0.25904
0.135667
0.073132
0.0411514
0.0241343
0.0145952
0.00905178
0.00574835
0.00374127
0.00250248
0.00172789
0.00123854
0.000927156
0.000728325
0.000601384
0.000520504
0.00046898
0.000435989
0.000414612
0.000400478
0.000390864
0.000384309
0.000380164
0.000377832
0.258801
0.130997
0.0691484
0.0384684
0.0224911
0.0135985
0.00843614
0.00535819
0.00348731
0.00233292
0.00161203
0.00115773
0.0008698
0.000687057
0.000571397
0.000498555
0.00045281
0.000423992
0.000405662
0.000393826
0.000386046
0.000380997
0.000378039
0.000376482
0.263967
0.127828
0.0658861
0.036299
0.0211816
0.0128213
0.00796361
0.00506164
0.00329531
0.00220507
0.00152478
0.0010969
0.000826645
0.000656024
0.000548871
0.000482101
0.00044073
0.000415085
0.000399089
0.000389028
0.000382669
0.000378757
0.000376654
0.000375655
0.276052
0.125862
0.0631606
0.0345488
0.0201703
0.0122435
0.00762116
0.00484985
0.00315918
0.00211465
0.00146307
0.00105383
0.000796023
0.000633953
0.000532815
0.000470356
0.00043211
0.00040875
0.000394449
0.000385688
0.000380374
0.000377334
0.000375857
0.000375225
0.297927
0.124671
0.0608096
0.0331603
0.0194431
0.0118563
0.00740192
0.00471763
0.00307507
0.00205887
0.00142486
0.00102698
0.000776768
0.000619931
0.000522504
0.000462739
0.000426479
0.000404601
0.000391421
0.000383532
0.000378928
0.000376511
0.000375425
0.00037505
0.333058
0.123328
0.0586887
0.0321319
0.0190088
0.0116609
0.00730429
0.00466287
0.00304113
0.00203625
0.00140901
0.00101547
0.000768192
0.000613404
0.000517478
0.00045887
0.000423527
0.000402385
0.000389796
0.000382391
0.000378213
0.000376141
0.000375261
0.000375003
0.376212
0.119769
0.0567402
0.0315344
0.0188993
0.0116662
0.00732864
0.00468393
0.00305563
0.00204539
0.00141449
0.0010186
0.000769817
0.000614077
0.000517553
0.000458598
0.000423124
0.000402001
0.000389524
0.000382252
0.000378177
0.000376154
0.000375286
0.000375016
2.18185
2.81252
4.23852
4.02259
3.41763
2.86471
0.908037
2.17693
2.65427
2.21418
1.56158
0.879108
0.2473
1.94828
2.04107
1.46426
0.924408
0.48037
0.280892
1.86564
1.72995
1.13607
0.69221
0.375595
1.57028
1.80462
1.53651
0.976756
0.599349
0.347502
1.91871
1.74462
1.41255
0.901193
0.56814
0.350545
2.21679
1.68945
1.3361
0.873789
0.57055
0.371133
2.46097
1.65129
1.29474
0.876931
0.595189
0.405969
2.65175
1.63139
1.28127
0.903212
0.639372
0.453991
2.79143
1.62702
1.2882
0.949591
0.700604
0.516189
2.88281
1.63681
1.31633
1.01352
0.779147
0.594655
2.92831
1.65998
1.36272
1.09445
0.876301
0.692434
2.92923
1.6973
1.42597
1.19249
0.994001
0.813463
2.91806
1.75354
1.50522
1.30791
1.13449
0.962517
2.88836
1.82468
1.59897
1.44055
1.29985
1.14506
2.83193
1.90404
1.7044
1.58909
1.49117
1.36669
2.74051
1.98214
1.81674
1.75034
1.70739
1.63166
2.60487
2.04581
1.92908
1.91888
1.94406
1.94175
2.41381
2.078
2.03349
2.08415
2.19616
2.31005
2.15361
2.06685
2.11791
2.24639
2.45377
2.75104
1.81137
2.00585
2.19613
2.41273
2.71594
3.30062
1.38484
1.91135
2.32739
2.64056
3.04045
4.08036
1.04065
2.00871
2.76053
3.19065
3.69463
5.45577
2.78565
3.76305
5.21077
5.76089
5.79096
6.19805
0.328604
0.110792
0.0552036
0.0315441
0.0191678
0.0118954
0.00748967
0.00479053
0.00312489
0.00209029
0.00144373
0.00103776
0.000782407
0.000622302
0.000522864
0.000461997
0.000425307
0.000403446
0.000390529
0.000382993
0.000378717
0.000376513
0.000375495
0.000375088
0.240579
0.102546
0.0549774
0.0323947
0.0198673
0.0123674
0.00779444
0.00498568
0.00325041
0.00217185
0.00149742
0.00107354
0.000806479
0.000638567
0.000533843
0.000469392
0.000430311
0.000406891
0.000392966
0.000384749
0.000379968
0.000377284
0.000375927
0.000375285
0.200988
0.100158
0.0567113
0.0341507
0.0210376
0.0131052
0.00825741
0.00527869
0.00343833
0.00229424
0.0015784
0.00112794
0.000843472
0.00066392
0.000551264
0.000481367
0.000438574
0.000412659
0.00039706
0.000387678
0.000382012
0.000378613
0.000376702
0.000375699
0.18964
0.103058
0.0606242
0.0368571
0.0227193
0.0141382
0.00889848
0.00568285
0.00369756
0.00246346
0.00169081
0.00120385
0.000895458
0.000699878
0.000576268
0.000498794
0.000450762
0.000421257
0.000403197
0.000392081
0.000385108
0.000380681
0.000378016
0.000376458
0.192958
0.110836
0.0665457
0.0405777
0.0249712
0.015508
0.00974548
0.0062166
0.00404041
0.00268786
0.00184039
0.00130529
0.000965305
0.00074854
0.000610425
0.000522869
0.000467794
0.000433388
0.000411924
0.000398394
0.000389611
0.000383778
0.000380037
0.000377718
0.206653
0.122993
0.0745561
0.0454442
0.0278871
0.0172754
0.0108374
0.00690528
0.00448362
0.00297872
0.00203489
0.0014377
0.0010569
0.000812754
0.000655869
0.00055522
0.000490929
0.000450036
0.000424014
0.00040723
0.000396
0.000388219
0.000382913
0.000379572
0.22926
0.139531
0.0849626
0.0516842
0.0316094
0.0195277
0.0122285
0.00778339
0.00504976
0.00335118
0.00228472
0.00160838
0.00117551
0.000896388
0.000715517
0.000598103
0.000521938
0.000472592
0.000440541
0.000419386
0.000404816
0.000394369
0.000387043
0.000382282
0.260523
0.16107
0.0983137
0.0596477
0.0363461
0.0223879
0.0139934
0.00889759
0.005769
0.00382536
0.00260368
0.00182708
0.00132816
0.00100464
0.000793316
0.000654577
0.00056323
0.000502955
0.00046298
0.000435979
0.000416906
0.000402906
0.000392967
0.000386226
0.301276
0.188769
0.115446
0.0698468
0.0423942
0.0260283
0.0162344
0.0103109
0.00668167
0.004428
0.00301008
0.00210665
0.00152413
0.0011444
0.00089447
0.000728666
0.000617964
0.000543627
0.000493307
0.000458559
0.000433465
0.000414716
0.000401275
0.000391749
0.353371
0.224379
0.137573
0.083016
0.0501755
0.03069
0.0190925
0.0121091
0.00784181
0.00519457
0.00352802
0.00246404
0.00177566
0.00132468
0.0010258
0.000825621
0.000690264
0.00059789
0.000534149
0.000489204
0.000456085
0.000430935
0.000412709
0.000399255
0.419618
0.270384
0.16642
0.100207
0.0602918
0.0367133
0.022764
0.0144089
0.00932225
0.00617232
0.00418938
0.00292148
0.00209872
0.00155729
0.00119621
0.000952326
0.000785547
0.000670078
0.000588999
0.000530709
0.000486925
0.000453108
0.000428272
0.00040926
0.503874
0.330222
0.204432
0.122929
0.0736087
0.0445834
0.0275243
0.0173724
0.0112221
0.00742462
0.00503643
0.00350826
0.00251429
0.00185768
0.00141739
0.0011178
0.000910926
0.000765897
0.000662481
0.000586806
0.000528909
0.000483373
0.000449353
0.000422438
0.611216
0.408569
0.255047
0.153355
0.0913821
0.0550014
0.0337666
0.0212263
0.0136777
0.00903735
0.00612565
0.00426307
0.00304988
0.00224605
0.00170459
0.00133384
0.00107572
0.000892841
0.000760691
0.00066245
0.000585973
0.000524659
0.000477881
0.000439692
0.748126
0.511688
0.323061
0.19461
0.115447
0.0689924
0.04206
0.0262939
0.01688
0.0111284
0.00753329
0.00523747
0.00374176
0.00274885
0.0020777
0.00161585
0.00129211
0.00106072
0.000891635
0.00076419
0.000663377
0.00058095
0.00051652
0.000462241
0.922672
0.647771
0.415052
0.251155
0.148489
0.0880688
0.0532397
0.033043
0.0211001
0.013862
0.00936371
0.00650086
0.00463814
0.00340089
0.00256277
0.00198387
0.00157596
0.00128235
0.00106581
0.000900656
0.000768114
0.000657623
0.000568926
0.000491724
1.14473
0.827167
0.539762
0.329231
0.194409
0.11447
0.0685453
0.0421614
0.0267303
0.0174713
0.0117621
0.00814805
0.00580377
0.00424833
0.00319395
0.00246409
0.00194792
0.00157441
0.00129691
0.0010832
0.000909478
0.000761919
0.000640088
0.000530301
1.42627
1.06248
0.70828
0.437262
0.258765
0.151497
0.0898277
0.0546735
0.0343477
0.0222935
0.0149343
0.0103109
0.00732716
0.00535322
0.00401659
0.00309087
0.00243491
0.0019586
0.00160284
0.00132674
0.00109983
0.000903644
0.000736851
0.000580748
1.78012
1.36908
0.933896
0.586007
0.349184
0.203924
0.119843
0.0721173
0.044814
0.0288248
0.0191783
0.0131766
0.00933164
0.00680062
0.00509191
0.00391008
0.00307253
0.00246343
0.00200704
0.00165092
0.00135571
0.00109623
0.000868785
0.000646576
2.20666
1.76617
1.23122
0.788075
0.475507
0.278415
0.162634
0.0968017
0.0594278
0.0378076
0.0249332
0.0170167
0.0119931
0.00870997
0.00650469
0.00498442
0.00390899
0.00312725
0.00254089
0.00208209
0.00169958
0.00135857
0.00104986
0.000732321
2.71758
2.26612
1.61262
1.05601
0.649137
0.383665
0.223915
0.132145
0.0801495
0.0503645
0.0328578
0.0222332
0.0155684
0.0112534
0.00837586
0.00640282
0.00501243
0.00400424
0.00324887
0.00265766
0.00216373
0.00171882
0.00130231
0.000844774
3.34108
2.87587
2.0838
1.39862
0.880974
0.529792
0.311248
0.183036
0.109902
0.0681966
0.043951
0.0294309
0.0204399
0.0146847
0.010883
0.00829615
0.00648429
0.00517673
0.00420039
0.00343794
0.00280203
0.00222652
0.00166883
0.0010015
4.14109
3.59127
2.63775
1.8158
1.17756
0.726341
0.433526
0.256026
0.152904
0.0938523
0.0597296
0.0395281
0.0271842
0.0193842
0.0142914
0.0108613
0.00848074
0.00677734
0.00551573
0.00453875
0.00373189
0.0030042
0.0022743
0.00134084
5.26977
4.36962
3.25209
2.29461
1.5368
0.978912
0.599284
0.358945
0.214867
0.131028
0.0824682
0.0539167
0.0366733
0.0259213
0.0189939
0.0143878
0.0112325
0.00900756
0.00739124
0.00617621
0.00522023
0.00442717
0.00380463
0.00365097
6.41127
5.34371
3.91842
2.81474
1.94734
1.28637
0.814156
0.499655
0.302774
0.184782
0.115474
0.0746758
0.0502143
0.0351383
0.0255547
0.0192728
0.0150374
0.0121128
0.0100605
0.00861682
0.00762198
0.00699652
0.0068119
0.00732925
)
;

boundaryField
{
    rotor
    {
        type            epsilonWallFunction;
        value           nonuniform List<scalar> 
144
(
2.28693
3.39341
4.1245
4.04618
3.36216
3.19364
2.28693
0.960932
0.25565
1.18943
1.38476
1.68612
1.91909
2.10263
2.24529
2.35175
2.42599
2.47271
2.48002
2.44666
2.36891
2.24819
2.08411
1.87636
1.62597
1.33959
0.280167
0.255446
0.959284
2.19971
2.19971
2.7711
3.89447
5.41417
6.23913
6.14016
1.92274
2.99593
6.02277
6.78205
6.6055
6.17949
1.92274
0.836342
0.234737
0.261956
1.1861
1.30484
1.44252
1.54705
1.62024
1.66341
1.67669
1.66712
1.63455
1.59097
1.53459
1.46396
1.37594
1.24993
0.280006
0.269112
0.253937
0.232809
0.879195
2.21609
2.21609
2.10836
1.88137
1.6621
1.38522
1.54458
2.23239
4.32335
6.50069
7.12947
7.34117
31.8961
2.23239
0.935068
0.250034
0.269955
0.280443
1.27452
1.37408
1.45366
1.511
1.54757
1.5668
1.574
1.57235
1.54794
1.49535
1.41565
1.31637
1.21501
0.280665
0.268845
0.250298
0.226335
0.840377
1.89561
1.89561
1.52797
1.90234
2.85757
3.22829
2.99037
2.18185
2.81252
4.23852
4.02259
3.41763
2.86471
2.18185
0.908037
0.2473
0.280892
1.57028
1.91871
2.21679
2.46097
2.65175
2.79143
2.88281
2.92831
2.92923
2.91806
2.88836
2.83193
2.74051
2.60487
2.41381
2.15361
1.81137
1.38484
1.04065
2.78565
2.78565
3.76305
5.21077
5.76089
5.79096
6.19805
)
;
    }
    freestream
    {
        type            inletOutlet;
        inletValue      uniform 0.000375;
        value           nonuniform List<scalar> 
96
(
0.0117969
0.0170414
0.0232269
0.0305212
0.0391134
0.0492409
0.0612129
0.0754956
0.0926648
0.113459
0.1387
0.169676
0.207913
0.255156
0.313333
0.385989
0.483395
0.62933
0.847928
1.1157
1.281
1.27655
1.11523
1.0146
1.03411
1.21898
1.3651
1.3648
1.07999
0.487833
0.170036
0.0781557
0.0480597
0.0361427
0.0305405
0.027402
0.0255023
0.0236453
0.0216513
0.0195767
0.0174
0.0151514
0.0128951
0.0106857
0.00855555
0.00650937
0.00452239
0.00256167
0.000375
0.000375
0.000375
0.000375
0.000375
0.000375
0.000375
0.000375
0.000375
0.000375
0.000375
0.000375
0.000375
0.000375
0.000375
0.000375
0.000375
0.000375
0.000375
0.000375
0.000375
0.000375
0.000375
0.000375
0.000375
0.000375
0.000375
0.000375
0.000375
0.000375
0.000375
0.000375
0.000375
0.000375
0.000375
0.000375
0.000375
0.000375
0.000375
0.000375
0.000375
0.000375
0.000375
0.000375
0.000375
0.000375
0.00365097
0.00732925
)
;
    }
    frontAndBack
    {
        type            empty;
    }
}


// ************************************************************************* //
