/*--------------------------------*- C++ -*----------------------------------*\
  =========                 |
  \\      /  F ield         | OpenFOAM: The Open Source CFD Toolbox
   \\    /   O peration     | Website:  https://openfoam.org
    \\  /    A nd           | Version:  11
     \\/     M anipulation  |
\*---------------------------------------------------------------------------*/
FoamFile
{
    format      ascii;
    class       volScalarField;
    location    "1.26";
    object      nut;
}
// * * * * * * * * * * * * * * * * * * * * * * * * * * * * * * * * * * * * * //

dimensions      [0 2 -1 0 0 0 0];

internalField   nonuniform List<scalar> 
2880
(
9.45381e-07
5.24281e-06
1.72345e-05
3.75508e-05
6.07332e-05
0.000102333
3.21045e-05
7.24234e-05
0.000131984
0.00019112
0.00023852
0.000284826
0.000182337
0.00014599
0.000248177
0.000334912
0.000395424
0.000427269
4.70686e-05
0.000197346
0.000335907
0.000442907
0.000514922
0.000552071
4.92976e-05
0.000234014
0.000402976
0.000525246
0.000610153
0.00065892
5.29038e-05
0.000265102
0.000454707
0.000589067
0.00068561
0.000748875
5.52691e-05
0.000292835
0.000495225
0.000639037
0.000746229
0.000822311
5.69871e-05
0.000317334
0.000527209
0.000678431
0.000795203
0.000882137
5.82503e-05
0.000338413
0.000551707
0.000708917
0.0008345
0.000930911
5.91564e-05
0.000355482
0.000568968
0.000731284
0.000865378
0.000970842
5.97701e-05
0.000367533
0.000578918
0.000745841
0.000888751
0.00100389
6.0147e-05
0.000373571
0.000581362
0.000752597
0.000904943
0.00103101
6.02046e-05
0.000373833
0.000575962
0.000751287
0.000913748
0.00105247
5.99317e-05
0.000368732
0.000562827
0.000741215
0.000914473
0.00106784
5.92892e-05
0.000358186
0.000541519
0.000722212
0.000905974
0.00107639
5.82626e-05
0.000341975
0.000511939
0.00069292
0.000886567
0.00107636
5.68052e-05
0.00032001
0.000473972
0.000652266
0.000853588
0.00106485
5.48491e-05
0.000292181
0.000427613
0.000598781
0.00080336
0.00103871
5.22954e-05
0.000258291
0.000373029
0.000531439
0.000732783
0.000989932
4.89502e-05
0.000217907
0.000310942
0.000449639
0.000638894
0.000905677
0.00019926
0.000170206
0.000242182
0.000354243
0.000519766
0.00077139
0.000181932
0.000115423
0.000166627
0.000248572
0.000377619
0.000570464
3.19967e-05
5.28683e-05
8.37718e-05
0.000139897
0.00022338
0.000308623
9.10016e-07
4.26505e-06
1.62552e-05
5.03188e-05
0.000112723
0.000199369
0.000394983
0.000719723
0.00105285
0.0013232
0.00151583
0.00161648
0.00169001
0.0017645
0.00186293
0.00200067
0.00218423
0.00241201
0.00267675
0.00296815
0.00327474
0.00358521
0.00388941
0.00417884
0.00444592
0.00468196
0.00487612
0.00501946
0.00511414
0.00519052
0.00033763
0.000582623
0.000868803
0.00113893
0.00137339
0.00150914
0.00159525
0.00166773
0.00174988
0.00186073
0.00201253
0.00220982
0.00245039
0.00272752
0.00303251
0.00335691
0.00369384
0.0040377
0.00438119
0.00471088
0.00500602
0.0052336
0.0054159
0.00552489
0.000356639
0.000532894
0.000710327
0.000965724
0.00119839
0.00138868
0.00149425
0.00157367
0.00164876
0.00173966
0.00186244
0.00202712
0.00223717
0.00249078
0.0027833
0.00311005
0.00346801
0.00385444
0.00426143
0.0046696
0.00503998
0.00533783
0.00558458
0.00571491
0.000502861
0.000536447
0.000633684
0.000817482
0.0010366
0.00124142
0.00138538
0.00147832
0.0015548
0.00163406
0.00173364
0.00186727
0.00204356
0.00226601
0.0025349
0.00285011
0.00321309
0.00362461
0.00407721
0.00454689
0.00497517
0.00533746
0.00563247
0.0057854
0.000652689
0.000579106
0.00063909
0.000718558
0.000894896
0.00109267
0.00126521
0.00137794
0.00146311
0.00153901
0.00162304
0.00173061
0.00187383
0.00206085
0.00229688
0.0025867
0.00293658
0.00335189
0.00382796
0.00433949
0.00481407
0.00523079
0.00556595
0.00574549
0.000771611
0.000691229
0.000684373
0.000697536
0.000800715
0.000960549
0.00112824
0.00126412
0.001366
0.00144761
0.00152511
0.00161424
0.00172894
0.00188062
0.00207854
0.00233184
0.00265144
0.00304809
0.00352266
0.00405325
0.00456179
0.00502149
0.00538942
0.00560056
0.000866996
0.000819334
0.000758648
0.000747902
0.000753089
0.000871542
0.00101545
0.00115119
0.00126494
0.0013559
0.00143411
0.00151305
0.00160645
0.00172707
0.00188662
0.00209724
0.00237345
0.00273107
0.00317852
0.00370211
0.00422937
0.00471785
0.00510997
0.00535703
0.000943463
0.000931166
0.000865518
0.000823344
0.000800624
0.000815027
0.000927532
0.00104793
0.00116386
0.00126254
0.0013454
0.00142116
0.00150134
0.00159808
0.00172368
0.00189144
0.00211759
0.00242139
0.00281872
0.00330742
0.003834
0.00433161
0.00474727
0.0050203
0.00100506
0.00101978
0.000973375
0.000913138
0.000885336
0.00083629
0.000876887
0.00096923
0.00107148
0.00117031
0.00125717
0.00133388
0.00140777
0.00148872
0.00158785
0.00171786
0.00189456
0.00213799
0.00246894
0.00289659
0.0034001
0.00388395
0.00431881
0.0046054
0.00105594
0.00108978
0.001067
0.00101669
0.00096894
0.00093211
0.000887179
0.000922139
0.000998329
0.00108595
0.00117164
0.00124944
0.00132123
0.00139324
0.00147417
0.00157473
0.00170858
0.00189392
0.00215279
0.00250371
0.00294649
0.00341146
0.00383976
0.00413288
0.00109925
0.00114642
0.00114358
0.00110905
0.00105916
0.00102668
0.000963449
0.000936825
0.000963422
0.00102312
0.00109642
0.00117037
0.00124017
0.00130723
0.00137685
0.00145682
0.00155768
0.00169399
0.00188523
0.00215309
0.00251065
0.00293618
0.00333281
0.00363349
0.00113702
0.00119437
0.00120574
0.00118693
0.0011501
0.00110738
0.00106612
0.000999487
0.000980344
0.00099895
0.00104524
0.00110502
0.00116797
0.00122989
0.00129182
0.00135818
0.00143589
0.00153525
0.00167099
0.00186243
0.00212919
0.00247838
0.00284353
0.0031268
0.00117076
0.001237
0.00125792
0.00125179
0.00122793
0.00119052
0.0011578
0.0010945
0.00104005
0.00102302
0.00103382
0.00106754
0.00111432
0.00116632
0.00121985
0.00127571
0.00133752
0.00141104
0.00150588
0.00163608
0.0018198
0.00207392
0.00239418
0.00264531
0.00120112
0.00127666
0.00130438
0.00130739
0.00129509
0.00127033
0.00123583
0.00119629
0.00112976
0.00108905
0.00106953
0.00107253
0.00109421
0.00112799
0.00116824
0.00121231
0.00126058
0.00131572
0.00138236
0.00146874
0.00158746
0.00175572
0.00199133
0.00222097
0.00122801
0.00131424
0.00134787
0.00135761
0.00135472
0.00134124
0.00131662
0.00128746
0.00123609
0.00118292
0.00114845
0.00112706
0.00112177
0.00113096
0.00115085
0.00117813
0.00121121
0.00124978
0.00129527
0.00135148
0.00142495
0.00152643
0.00167429
0.00186689
0.0012506
0.00135022
0.00139003
0.00140541
0.00141034
0.00140709
0.00139448
0.00137233
0.00134237
0.0012951
0.00125692
0.00122422
0.00120006
0.00118635
0.00118297
0.00118875
0.00120222
0.00122212
0.00124805
0.0012809
0.00132313
0.00137919
0.00146054
0.00159843
0.00126714
0.00138398
0.00143144
0.00145255
0.00146462
0.00147054
0.00146915
0.00145891
0.00144073
0.00141369
0.00137814
0.00134696
0.00131637
0.00128942
0.00126814
0.00125363
0.00124615
0.0012453
0.00125054
0.00126169
0.00127921
0.00130424
0.00133916
0.00142523
0.00127446
0.00141383
0.00147146
0.00149938
0.00151894
0.00153352
0.00154219
0.00154306
0.00153612
0.00152274
0.00150122
0.00147583
0.00144809
0.00141883
0.00139003
0.00136353
0.00134067
0.00132219
0.00130841
0.00129942
0.0012953
0.00129651
0.00130038
0.00134522
0.00126885
0.00143665
0.00150804
0.00154437
0.00157277
0.00159656
0.0016145
0.00162528
0.00162778
0.00162342
0.00161205
0.00159486
0.00157446
0.00154959
0.00152145
0.00149194
0.00146274
0.00143488
0.00140912
0.00138602
0.0013657
0.00134898
0.00133319
0.0013495
0.00124955
0.00144737
0.00153733
0.00158334
0.00162238
0.00165727
0.0016858
0.00170588
0.00171677
0.00171859
0.00171365
0.00170165
0.00168328
0.0016611
0.00163608
0.00160923
0.00158167
0.00155356
0.00152503
0.00149672
0.00146954
0.00144365
0.0014173
0.00141615
0.00120769
0.00144239
0.0015538
0.00160896
0.00165913
0.00170707
0.00174929
0.00178169
0.00180262
0.00181131
0.00181164
0.00180298
0.0017871
0.00176574
0.00174011
0.00171128
0.00168015
0.0016486
0.00161822
0.00158978
0.00156383
0.0015425
0.00152794
0.00153207
0.00113151
0.00142009
0.00155071
0.00161142
0.0016693
0.00172767
0.00178275
0.00183158
0.0018696
0.00189103
0.00190248
0.00190323
0.0018934
0.001875
0.00185016
0.0018208
0.00178889
0.00175596
0.0017232
0.00169166
0.00166237
0.00163686
0.00161892
0.00161725
0.00101216
0.00138153
0.00152244
0.00158028
0.00163258
0.00168832
0.00174425
0.00180159
0.00184758
0.00187719
0.00190604
0.00192332
0.00193069
0.00192967
0.00192138
0.00190661
0.00188749
0.00186495
0.00184029
0.00181501
0.00179088
0.00176993
0.00175472
0.00174897
0.000867015
0.00132829
0.00147042
0.00151308
0.00155381
0.00160239
0.00165456
0.00171312
0.00176223
0.00179735
0.00183698
0.00186854
0.00189168
0.00190708
0.00191593
0.00191831
0.00191388
0.00190449
0.00189168
0.00187694
0.00186191
0.00184866
0.00183962
0.001837
7.96049e-07
4.63475e-06
2.52018e-05
6.30154e-05
0.000119468
0.000200193
2.79016e-05
2.62269e-05
8.37209e-05
0.000154123
0.000238793
0.000317837
0.000166549
6.5749e-05
0.000162506
0.000263693
0.000393566
0.000561936
0.00018487
0.000108828
0.000235341
0.000364092
0.000530241
0.000738627
4.69816e-05
0.000149971
0.000297971
0.000449628
0.000634216
0.00083592
4.90093e-05
0.00018725
0.00035003
0.00051776
0.00070702
0.000879753
5.05004e-05
0.000219186
0.000391856
0.000568908
0.000751199
0.000893383
5.16906e-05
0.000245217
0.000424119
0.000604074
0.000773065
0.000891656
5.24973e-05
0.000264731
0.000447213
0.000625191
0.000779332
0.000880565
5.29623e-05
0.000278092
0.000461841
0.000634469
0.000774825
0.000862569
5.31046e-05
0.000285206
0.00046876
0.000633852
0.000762255
0.000838728
5.30056e-05
0.000286412
0.000468473
0.000625141
0.000742709
0.000809602
5.2657e-05
0.000281292
0.00046136
0.000609561
0.000716959
0.000775147
5.21835e-05
0.00026963
0.000447749
0.000587893
0.000685511
0.000734998
5.15578e-05
0.000252597
0.000428045
0.00056073
0.000648558
0.000688679
5.07521e-05
0.000231598
0.000402916
0.000528598
0.00060622
0.000636035
4.9711e-05
0.000208522
0.000373568
0.000492017
0.000558947
0.000578607
4.80722e-05
0.000187232
0.00034207
0.000451292
0.000508142
0.000517323
0.000199186
0.000179388
0.000310922
0.000405525
0.000454876
0.000451417
0.000191226
0.000170807
0.000277566
0.000353963
0.000397151
0.000383472
0.000180101
0.000153031
0.000234517
0.000293592
0.000331044
0.000313679
0.000165191
0.000116966
0.000174053
0.000217916
0.000249777
0.000244367
2.93219e-05
5.66903e-05
9.00312e-05
0.000120626
0.000142169
0.000171986
9.17724e-07
3.26717e-06
7.87859e-06
1.54354e-05
2.50138e-05
4.94453e-05
0.000858069
0.00127989
0.00139808
0.00141816
0.00144109
0.00147182
0.00150944
0.00155636
0.00160479
0.00164072
0.00168485
0.00172729
0.00176492
0.0017974
0.00182494
0.00184772
0.00186571
0.00187853
0.00188574
0.00188853
0.00188879
0.00188787
0.00188742
0.00188958
0.000938079
0.00123807
0.00130643
0.00129959
0.0012961
0.00130186
0.0013184
0.0013458
0.00138242
0.00141449
0.00145451
0.00149988
0.00154473
0.00158611
0.00162223
0.0016545
0.00168405
0.00171203
0.00173982
0.0017664
0.00179087
0.00181329
0.00183386
0.00185338
0.00100206
0.00118855
0.00120327
0.00116724
0.00113482
0.00111352
0.00110677
0.00111552
0.0011403
0.00118091
0.00123192
0.00128815
0.00134542
0.00140199
0.00145514
0.00150445
0.00154909
0.00158865
0.00162297
0.00165312
0.0016798
0.00170315
0.00172233
0.00174136
0.00102389
0.00112938
0.00109826
0.00103414
0.00097401
0.000927016
0.000898029
0.000892482
0.000903436
0.00092323
0.000952635
0.000993129
0.00104403
0.0011015
0.00116137
0.0012209
0.00127901
0.00133445
0.00138646
0.00143456
0.00147848
0.00151816
0.00155181
0.0015841
0.00102078
0.00106547
0.00100074
0.000912882
0.000829651
0.000761502
0.000718196
0.000688117
0.000662572
0.000654234
0.000661059
0.00068427
0.000723547
0.000772659
0.000826839
0.0008832
0.000939658
0.000994395
0.00104592
0.00109308
0.00113592
0.00117598
0.00120607
0.00124419
0.00100441
0.00100421
0.000918103
0.000814916
0.00072396
0.000648707
0.000598228
0.0005476
0.000497102
0.000483245
0.000495758
0.0005334
0.00058172
0.000629999
0.000674028
0.000713398
0.000749157
0.000782639
0.000814026
0.000843746
0.000869484
0.000892725
0.000904118
0.000916299
0.000980623
0.000951753
0.000854701
0.000745972
0.000653846
0.000584444
0.000535284
0.000476057
0.000434726
0.000442938
0.000490321
0.000556909
0.000621167
0.000679316
0.000731266
0.000777573
0.000818058
0.000853051
0.000882783
0.000906787
0.000925856
0.00093879
0.000940722
0.000959882
0.000953408
0.000909632
0.000809907
0.000700573
0.00060709
0.000542081
0.000505475
0.000439229
0.000423687
0.000455055
0.000520866
0.000594247
0.000665251
0.000732968
0.000799409
0.000865713
0.000931442
0.000994004
0.00105253
0.00110913
0.0011638
0.00121495
0.00127177
0.00136938
0.000925032
0.000875817
0.000778445
0.000669078
0.000574494
0.000516814
0.000476017
0.000415949
0.000429839
0.000496177
0.000579791
0.000666522
0.000753181
0.000836438
0.000916022
0.000994278
0.00107557
0.00116445
0.00126407
0.00137609
0.0014982
0.00163612
0.00180988
0.00200314
0.000895752
0.000845142
0.000748908
0.000637188
0.000540983
0.000495172
0.000423572
0.000409777
0.000474051
0.000569109
0.000680886
0.000801691
0.000920332
0.00103403
0.00114299
0.00124781
0.00135036
0.00145585
0.00157383
0.00171711
0.00189267
0.00214873
0.00245017
0.00267347
0.000863879
0.000810035
0.000710589
0.000591811
0.000498392
0.000463339
0.000406091
0.000450161
0.00055047
0.000676878
0.000819565
0.000962434
0.00110354
0.00124595
0.00139262
0.00154603
0.0017081
0.00188109
0.00207011
0.00228653
0.00255233
0.00286051
0.00317905
0.00338886
0.000826348
0.000762348
0.000657518
0.000525931
0.000476034
0.00041051
0.000425295
0.00052347
0.000658197
0.000817687
0.000981019
0.00114198
0.00130123
0.00146081
0.00162472
0.00179969
0.00199572
0.00222547
0.00250215
0.00283522
0.00322135
0.00361429
0.00392699
0.00416318
0.000779683
0.000697673
0.000579947
0.000470165
0.000436397
0.000399978
0.00049031
0.000627888
0.00079547
0.000978863
0.00116448
0.0013522
0.00154178
0.00173399
0.00193181
0.00214193
0.00237616
0.00265125
0.00298441
0.00338277
0.00383268
0.00424936
0.00459684
0.00485552
0.000722945
0.00062229
0.000491996
0.000441786
0.000386382
0.000451567
0.000584202
0.000755939
0.000957359
0.00116388
0.0013742
0.00158813
0.00180716
0.00203482
0.00227706
0.00254266
0.00284333
0.00319185
0.00359569
0.00404656
0.00450347
0.00490266
0.00524768
0.00546274
0.000656285
0.000548595
0.000420538
0.000396428
0.000397981
0.000524349
0.000702757
0.000915054
0.00113708
0.00136579
0.00160035
0.00184046
0.00208733
0.00234522
0.00262233
0.00293078
0.00328465
0.00369462
0.00415889
0.00465485
0.00511338
0.00550526
0.00583529
0.00600997
0.000578973
0.000461607
0.000393676
0.00036167
0.000462697
0.000642293
0.000850532
0.00108525
0.00133049
0.00158472
0.00184633
0.00211456
0.00239101
0.00268057
0.00299205
0.00333776
0.00373069
0.00417772
0.00467005
0.00517792
0.00562355
0.00600853
0.0063258
0.00647875
0.000498423
0.000384594
0.000353708
0.000382628
0.000543146
0.000765767
0.00101386
0.00127349
0.00154413
0.00182376
0.00211019
0.0024032
0.00270553
0.00302305
0.00336463
0.00374112
0.00416185
0.00462781
0.00512383
0.00561623
0.00603265
0.00639725
0.00667222
0.00680827
0.000418687
0.000334215
0.00033855
0.000432748
0.000668721
0.000927644
0.00119592
0.00147776
0.00177184
0.00207441
0.00238289
0.00269749
0.00302141
0.00336049
0.00372267
0.00411656
0.00454775
0.00501252
0.00549208
0.00595213
0.00633143
0.00666104
0.00689589
0.0070157
0.000325933
0.00031323
0.000341711
0.000535634
0.000812501
0.00109572
0.00138809
0.00169586
0.00201355
0.0023364
0.00266277
0.00299402
0.00333368
0.00368668
0.00405883
0.00445551
0.00487858
0.00532139
0.00576468
0.00617837
0.00651094
0.00679489
0.00699167
0.00709538
0.00021057
0.000301396
0.000385268
0.000647956
0.000976043
0.00127886
0.00159818
0.00192907
0.0022652
0.00260311
0.00294248
0.00328522
0.00363425
0.00399279
0.00436375
0.00474887
0.00514661
0.00554885
0.00593824
0.00629023
0.00656983
0.00679402
0.00695152
0.00703758
0.00014505
0.000298972
0.000466213
0.000804782
0.00115781
0.00148518
0.00182732
0.00217531
0.00252386
0.00287118
0.00321799
0.0035661
0.00391726
0.00427235
0.00463104
0.00499135
0.00534874
0.00569447
0.00601423
0.00628975
0.00650325
0.00665262
0.00676244
0.00682551
0.000158004
0.000332307
0.00059288
0.000996503
0.00134716
0.00170492
0.00206578
0.00242565
0.00278198
0.00313439
0.00348394
0.00383181
0.00417817
0.00452141
0.00485797
0.0051824
0.0054875
0.00576397
0.00600025
0.00618385
0.00630613
0.00636764
0.00640235
0.0064288
0.00018152
0.000392324
0.000781203
0.00121195
0.00157576
0.00194598
0.00231504
0.00267952
0.00303792
0.00339036
0.00373753
0.00407948
0.00441449
0.00473847
0.00504491
0.0053254
0.00557031
0.00576933
0.00591196
0.00598871
0.00599488
0.00593821
0.00585262
0.00580272
0.000205543
0.000500635
0.000992435
0.0014167
0.00181226
0.0021922
0.00256392
0.0029286
0.00328552
0.00363448
0.00397536
0.00430681
0.00462523
0.00492433
0.0051953
0.00542755
0.00560971
0.00573043
0.00577884
0.00574495
0.0056217
0.00541153
0.0051406
0.00488537
9.21177e-07
6.6746e-06
2.71517e-05
6.61221e-05
0.000132407
5.04127e-05
3.11265e-05
7.52766e-05
0.000151927
0.000243737
0.000354293
0.00042263
0.000177103
0.000147997
0.000260638
0.000377809
0.000513663
0.000715938
0.000191185
0.000199334
0.000333142
0.000462122
0.000617385
0.000858772
0.000200283
0.000232479
0.00037712
0.000517192
0.000678242
0.000921742
4.84242e-05
0.000253378
0.000402578
0.000547634
0.000714056
0.000984108
4.95651e-05
0.000267778
0.000417104
0.000560158
0.0007445
0.00103948
5.04986e-05
0.000277765
0.000423684
0.00056222
0.000773373
0.00109089
5.11575e-05
0.000284341
0.000424209
0.000561643
0.000798521
0.00113802
5.15712e-05
0.000288073
0.000420192
0.000560198
0.000818593
0.00117965
5.17889e-05
0.000289201
0.00041267
0.000556176
0.000833706
0.00121417
5.18739e-05
0.000287392
0.000402404
0.000547665
0.000842897
0.00124078
5.18624e-05
0.000282405
0.000389548
0.000533746
0.000844808
0.00125804
5.15981e-05
0.000274297
0.000373903
0.000514466
0.000837771
0.00126432
5.10118e-05
0.000263062
0.000355428
0.000488527
0.000819883
0.00125782
5.00943e-05
0.000248654
0.000333964
0.000458037
0.000787671
0.00123648
4.89044e-05
0.00023102
0.000309156
0.000421616
0.000741977
0.00119792
4.76398e-05
0.000210142
0.000280741
0.000379832
0.000678215
0.00113909
0.000199104
0.000186077
0.000247754
0.000333033
0.000595012
0.00105579
0.000190727
0.000158082
0.000208984
0.000281423
0.000493105
0.000941568
0.000177555
0.000127225
0.000162695
0.000224582
0.000377482
0.000785864
0.00016053
8.97455e-05
0.000110579
0.000159624
0.000257094
0.000574732
2.80012e-05
4.23649e-05
5.37861e-05
8.60998e-05
0.00014199
0.000303351
7.83632e-07
2.35556e-06
7.91587e-06
2.64319e-05
5.82876e-05
9.57845e-05
0.000273156
0.000781038
0.00132637
0.00170589
0.00207199
0.00243988
0.00280732
0.00316897
0.00352167
0.00386423
0.00419555
0.00451289
0.00481096
0.00508171
0.00531484
0.00549875
0.00562173
0.0056728
0.00564173
0.00551769
0.00528594
0.00492166
0.00437454
0.00356787
0.000737315
0.00125963
0.00159777
0.00193757
0.00229866
0.00266939
0.00303745
0.00339621
0.0037431
0.00407709
0.00439639
0.00469706
0.00497241
0.00521324
0.00540862
0.00554723
0.00561861
0.00561422
0.00552757
0.00535323
0.0050846
0.00471064
0.00421151
0.00354435
0.000989034
0.00144363
0.00177853
0.00213657
0.00251152
0.0028876
0.00325463
0.00360838
0.00394753
0.00427104
0.00457635
0.00485837
0.00510936
0.00531945
0.00547785
0.00557437
0.00560081
0.00555194
0.00542549
0.00522113
0.00493849
0.00457465
0.00412146
0.00355421
0.00114582
0.00159845
0.00195493
0.00233097
0.00271487
0.00309233
0.00345583
0.00380292
0.00413288
0.00444435
0.00473392
0.00499549
0.00522052
0.00539893
0.00552057
0.00557699
0.0055629
0.0054769
0.00532117
0.00509995
0.00481695
0.00447309
0.004066
0.00357934
0.00127958
0.00173526
0.00211823
0.00251164
0.00290254
0.00327976
0.00363861
0.00397807
0.0042977
0.00459571
0.00486783
0.00510712
0.00530449
0.00544996
0.00553443
0.00555161
0.00549938
0.00538021
0.0052003
0.00496744
0.00468814
0.00436582
0.00400222
0.00358708
0.00138265
0.00185336
0.00226607
0.00267589
0.00307237
0.00344838
0.00380185
0.00413288
0.00444113
0.00472429
0.00497733
0.00519257
0.00536061
0.00547186
0.00551864
0.00549714
0.00540865
0.00525948
0.00505948
0.00481942
0.00454774
0.00424947
0.00392893
0.00357982
0.00147383
0.00195993
0.0023997
0.00282326
0.00322374
0.00359768
0.00394514
0.004267
0.00456288
0.00482992
0.00506239
0.00525203
0.00538934
0.00546545
0.00547442
0.00541528
0.00529292
0.00511744
0.00490203
0.00465974
0.00440013
0.00412877
0.0038509
0.00356232
0.0015555
0.00205699
0.0025192
0.00295359
0.00335664
0.00372777
0.00406863
0.00438062
0.00466323
0.00491306
0.00512374
0.00528662
0.00539231
0.00543293
0.00540468
0.00530974
0.00515677
0.00495961
0.00473428
0.00449525
0.00425216
0.00400999
0.00377349
0.00353916
0.00162767
0.00214498
0.00262459
0.00306716
0.00347154
0.00383919
0.00417288
0.00447439
0.00474299
0.00497478
0.00516285
0.00529827
0.00537202
0.00537752
0.00531344
0.00518542
0.00500609
0.00479271
0.00456344
0.00433316
0.00411042
0.00389863
0.003701
0.0035139
0.00169023
0.00222347
0.00271588
0.00316452
0.00356921
0.00393277
0.0042588
0.00454933
0.00480341
0.00501665
0.00518171
0.00528954
0.00533165
0.00530311
0.00520539
0.00504793
0.00484727
0.00462371
0.00439659
0.00417997
0.00398029
0.00379868
0.00363627
0.00348904
0.00174384
0.00229071
0.0027931
0.00324635
0.00365056
0.00400952
0.00432751
0.00460674
0.00484604
0.00504062
0.00518274
0.00526337
0.00527479
0.00521398
0.00508557
0.00490301
0.00468665
0.0044591
0.00423972
0.00404056
0.0038652
0.00371218
0.00358056
0.00346607
0.00178751
0.00234581
0.00285645
0.00331338
0.00371658
0.00407058
0.00438029
0.00464811
0.00487269
0.00504886
0.0051686
0.00522297
0.00520522
0.00511452
0.004959
0.00475623
0.00453001
0.00430429
0.00409722
0.00391787
0.00376658
0.00363952
0.003534
0.00344577
0.00182006
0.00238819
0.00290616
0.00336638
0.0037683
0.00411714
0.0044185
0.00467503
0.00488526
0.0050437
0.00514206
0.00517161
0.00512674
0.00500909
0.0048305
0.00461266
0.00438219
0.00416327
0.00397169
0.00381294
0.00368426
0.00357991
0.00349599
0.00342848
0.00184034
0.00241735
0.00294242
0.00340609
0.00380675
0.00415042
0.00444354
0.00468915
0.0048857
0.00502744
0.00510585
0.00511249
0.00504303
0.00490176
0.00470444
0.00447658
0.00424682
0.00403845
0.00386403
0.00372533
0.00361698
0.00353194
0.00346559
0.00341426
0.0018472
0.00243267
0.00296528
0.00343318
0.00383292
0.00417157
0.00445675
0.00469204
0.0048759
0.00500232
0.00506263
0.00504868
0.00495751
0.00479627
0.00458455
0.0043513
0.00412626
0.0039308
0.00377381
0.00365363
0.00356294
0.00349398
0.00344175
0.00340294
0.00183933
0.0024333
0.00297449
0.00344828
0.00384776
0.00418173
0.00445943
0.00468521
0.00485763
0.00497046
0.00501484
0.00498296
0.0048733
0.00469582
0.00447385
0.00423914
0.00402164
0.0038401
0.00369973
0.00359597
0.0035202
0.0034644
0.00342347
0.00339428
0.00181517
0.00241797
0.00296934
0.0034519
0.00385217
0.00418193
0.00445276
0.00467004
0.00483252
0.00493377
0.00496472
0.00491788
0.0047931
0.0046031
0.00437456
0.00414142
0.00393307
0.00376535
0.00364003
0.00355033
0.00348686
0.00344169
0.00340973
0.00338793
0.00177283
0.00238472
0.00294812
0.00344454
0.00384701
0.00417312
0.0044378
0.00464777
0.00480203
0.00489395
0.00491424
0.00485561
0.0047192
0.0045202
0.00428818
0.00405863
0.00385993
0.00370502
0.00359279
0.00351478
0.00346125
0.0034245
0.00339962
0.00338343
0.00170969
0.00233397
0.00291272
0.00342688
0.00383313
0.00415615
0.00441549
0.00461948
0.00476744
0.00485251
0.00486509
0.00479803
0.00465347
0.00444869
0.0042156
0.00399072
0.00380122
0.0036575
0.00355617
0.00348763
0.00344201
0.00341181
0.00339229
0.00338027
0.00162181
0.00226499
0.00286663
0.00339899
0.00381148
0.00413183
0.00438663
0.0045861
0.00472982
0.00481066
0.00481867
0.00474663
0.00459737
0.00438972
0.00415733
0.00393735
0.00375588
0.00362132
0.00352862
0.00346748
0.00342798
0.00340282
0.00338704
0.0033782
0.00150364
0.00217751
0.00281267
0.00336484
0.00378344
0.00410091
0.00435193
0.00454842
0.00469006
0.00476939
0.00477604
0.00470253
0.00455194
0.00434403
0.00411355
0.00389808
0.00372298
0.00359531
0.00350897
0.00345323
0.0034182
0.0033964
0.00338363
0.00337698
0.00134758
0.00207424
0.00275617
0.00332951
0.00375046
0.00406411
0.00431203
0.00450711
0.00464888
0.00472943
0.00473791
0.00466639
0.00451776
0.00431197
0.00408424
0.00387245
0.00370172
0.00357854
0.00349631
0.00344406
0.00341192
0.00339224
0.00338166
0.00337631
0.00114511
0.00196686
0.00270736
0.00329774
0.00371367
0.00402216
0.00426766
0.00446294
0.00460695
0.00469133
0.00470466
0.00463844
0.00449493
0.00429353
0.00406925
0.00386007
0.00369154
0.00357036
0.00349
0.00343938
0.00340847
0.00339022
0.00338067
0.00337604
0.000922327
0.00188974
0.00268212
0.00327276
0.00367363
0.0039763
0.00422131
0.00441904
0.00456766
0.00465829
0.00467909
0.00462082
0.00448477
0.00428916
0.0040684
0.0038607
0.00369218
0.00357048
0.00348962
0.00343891
0.00340814
0.00339015
0.00338072
0.00337608
8.9575e-07
4.30034e-06
1.75485e-05
3.70817e-05
6.13881e-05
9.13572e-05
3.01212e-05
3.01228e-05
6.55019e-05
0.000114591
0.000187175
0.000341662
0.000174839
8.26435e-05
0.00014168
0.000242101
0.000400625
0.000710671
0.000200357
0.000136668
0.000223923
0.000385709
0.000630228
0.00101853
5.1749e-05
0.000186526
0.000307778
0.000528846
0.000831941
0.00123548
5.53047e-05
0.000233381
0.000389984
0.000657447
0.000992705
0.00138146
5.80416e-05
0.000277103
0.000467348
0.000765807
0.00111476
0.00147967
6.01096e-05
0.000315452
0.000537301
0.000854283
0.00120517
0.00154203
6.16338e-05
0.000347289
0.000597745
0.000923932
0.00126702
0.00158014
6.27056e-05
0.000372412
0.000648603
0.000976104
0.0013084
0.00160082
6.33892e-05
0.000390561
0.000686958
0.00101387
0.00133369
0.00160877
6.37266e-05
0.00040141
0.000712647
0.00103845
0.0013462
0.00160712
6.37381e-05
0.000404147
0.000725849
0.00104979
0.00134802
0.0015977
6.36592e-05
0.000396584
0.000726717
0.0010481
0.00133962
0.00158122
6.34457e-05
0.000380278
0.000715132
0.00103369
0.00132073
0.00155723
6.30341e-05
0.000356374
0.0006911
0.00100616
0.00129069
0.00152607
6.23533e-05
0.000326734
0.000654692
0.000964721
0.00124798
0.00148699
6.13119e-05
0.000292993
0.000608629
0.000908114
0.0011899
0.00143644
5.97788e-05
0.000256652
0.000549808
0.000835684
0.00111042
0.00136181
5.75516e-05
0.000218264
0.000480894
0.000745597
0.00100313
0.00125346
5.4327e-05
0.000177829
0.000398344
0.00062706
0.000867041
0.00109746
4.96762e-05
0.000133582
0.000295747
0.000472771
0.000670473
0.000871929
3.46137e-05
7.36868e-05
0.00016502
0.000272151
0.000401326
0.000550048
1.14911e-06
5.82655e-06
2.1827e-05
5.35254e-05
0.000104543
0.00019924
0.00090671
0.00192228
0.00269684
0.00325202
0.00362962
0.00392529
0.00416942
0.00436988
0.00452397
0.00462272
0.00465401
0.0046077
0.00448324
0.00429686
0.00408122
0.00387432
0.00370381
0.00357918
0.00349569
0.00344297
0.003411
0.00339188
0.00338163
0.00337636
0.00116033
0.00204526
0.00273252
0.00322398
0.00358091
0.00387058
0.00411489
0.00431924
0.00448033
0.00458904
0.00463301
0.00460126
0.00449136
0.00431671
0.0041075
0.00390114
0.00372696
0.00359702
0.00350852
0.0034518
0.00341681
0.00339579
0.00338355
0.00337704
0.0014243
0.00216448
0.00275775
0.00318896
0.00352791
0.0038128
0.00405813
0.00426713
0.0044361
0.00455605
0.00461456
0.00459985
0.00450744
0.00434741
0.00414666
0.00394133
0.00376234
0.00362495
0.00352902
0.00346615
0.00342644
0.00340184
0.00338696
0.00337823
0.00162942
0.00225575
0.0027558
0.00314621
0.00347093
0.0037522
0.0039991
0.00421323
0.0043907
0.00452276
0.00459721
0.00460163
0.0045295
0.00438726
0.00419774
0.00399488
0.00381079
0.00366423
0.00355851
0.00348715
0.00344069
0.00341084
0.00339195
0.00338019
0.00177482
0.00230271
0.00273553
0.00309656
0.00341005
0.00368856
0.00393741
0.00415695
0.00434324
0.00448798
0.00457933
0.00460453
0.0045552
0.00443402
0.00425917
0.00406135
0.00387295
0.0037162
0.00359853
0.0035162
0.00346067
0.00342364
0.00339915
0.00338319
0.00186424
0.0023155
0.00270193
0.00304063
0.00334493
0.00362131
0.00387234
0.00409745
0.00429272
0.0044504
0.00455921
0.00460636
0.00458193
0.00448502
0.00432877
0.00413964
0.00394908
0.00378217
0.0036509
0.00355511
0.00348795
0.00344138
0.00340922
0.00338746
0.00191045
0.00230636
0.00265812
0.00297863
0.00327496
0.00354959
0.00380296
0.00403371
0.004238
0.00440866
0.00453515
0.00460492
0.00460694
0.00453716
0.00440368
0.00422785
0.00403875
0.00386317
0.00371752
0.003606
0.00352434
0.00346538
0.00342313
0.00339349
0.00192829
0.00228252
0.00260609
0.00291054
0.00319943
0.00347241
0.00372818
0.00396461
0.00417788
0.00436142
0.00450549
0.00459805
0.00462747
0.00458712
0.00448037
0.00432302
0.0041404
0.00395937
0.00379994
0.00367107
0.003572
0.00349739
0.00344206
0.00340186
0.00192833
0.00224858
0.00254727
0.00283635
0.00311766
0.0033888
0.00364688
0.00388896
0.00411113
0.00430732
0.00446864
0.00458376
0.00464088
0.00463147
0.0045548
0.00442115
0.00425099
0.00406945
0.00389869
0.00375208
0.00363315
0.00353941
0.00346736
0.00341304
0.00191692
0.00220772
0.00248291
0.00275625
0.00302918
0.00329788
0.00355798
0.00380556
0.00403647
0.00424502
0.00442309
0.00456016
0.00464465
0.00466681
0.00462265
0.00451732
0.00436591
0.00419021
0.00401257
0.00384971
0.00370957
0.0035934
0.00350043
0.00342749
0.00189804
0.00216237
0.00241437
0.00267075
0.00293383
0.003199
0.00346047
0.00371322
0.00395263
0.00417315
0.00436734
0.00452551
0.00463654
0.00469004
0.00467963
0.00460612
0.00447928
0.00431642
0.00413815
0.00396274
0.00380184
0.00366081
0.00354255
0.00344557
0.00187425
0.00211457
0.00234318
0.00258079
0.00283189
0.00309181
0.00335355
0.00361085
0.00385832
0.00409035
0.00429996
0.0044782
0.00461454
0.00469843
0.00472185
0.00468224
0.00458455
0.00444119
0.0042695
0.00408729
0.00390839
0.00374177
0.00359442
0.00346737
0.00184716
0.00206607
0.00227109
0.0024878
0.00272415
0.00297642
0.00323674
0.00349751
0.00375235
0.00399528
0.00421952
0.0044167
0.0045769
0.00468967
0.00474603
0.0047409
0.00467525
0.00455677
0.00439868
0.00421662
0.00402468
0.00383408
0.00365535
0.00349237
0.00181749
0.00201838
0.00220002