/*--------------------------------*- C++ -*----------------------------------*\
  =========                 |
  \\      /  F ield         | OpenFOAM: The Open Source CFD Toolbox
   \\    /   O peration     | Website:  https://openfoam.org
    \\  /    A nd           | Version:  11
     \\/     M anipulation  |
\*---------------------------------------------------------------------------*/
FoamFile
{
    format      ascii;
    class       volScalarField;
    location    "0.76";
    object      epsilon;
}
// * * * * * * * * * * * * * * * * * * * * * * * * * * * * * * * * * * * * * //

dimensions      [0 2 -3 0 0 0 0];

internalField   nonuniform List<scalar> 
2880
(
2.22749
4.31171
6.4886
7.12168
7.32981
31.9162
0.934057
2.11374
3.44755
4.41598
5.15235
9.37686
0.249745
1.73994
2.7904
3.62133
4.11963
5.08222
0.269622
1.65914
2.51655
3.12234
3.3126
3.35156
1.18701
1.66842
2.35258
2.70741
2.65036
2.41371
1.27397
1.69099
2.22813
2.36658
2.15118
1.78018
1.37171
1.70771
2.12257
2.10488
1.77008
1.37075
1.45111
1.71515
2.02847
1.90338
1.48512
1.09786
1.50856
1.71201
1.94626
1.73777
1.27582
0.909453
1.54536
1.69649
1.87464
1.60125
1.12181
0.77528
1.56495
1.67001
1.81257
1.49414
1.00692
0.677469
1.57267
1.63504
1.7591
1.41536
0.921397
0.605289
1.57144
1.59398
1.71488
1.36232
0.859133
0.552058
1.54732
1.54827
1.68195
1.33173
0.816388
0.513484
1.49492
1.49873
1.66021
1.32498
0.791211
0.486882
1.41534
1.44501
1.64856
1.33635
0.784541
0.470765
1.31603
1.38515
1.64491
1.37075
0.795041
0.46467
1.21391
1.31516
1.64504
1.42866
0.829445
0.469307
0.28032
1.22705
1.64592
1.51086
0.896723
0.487215
0.268498
1.13906
1.64299
1.61715
1.014
0.524643
0.250045
1.04027
1.6334
1.74539
1.21428
0.597571
0.226173
0.953257
1.60261
1.90884
1.56189
0.755934
0.839936
0.945395
1.56477
2.16533
2.17271
1.22267
1.89415
1.52515
1.89726
2.85051
3.22221
2.98474
14.8359
5.03714
2.12759
1.01817
0.522465
0.282793
0.160874
0.0958476
0.0595445
0.0384211
0.0256773
0.0177425
0.0126626
0.00932768
0.00708695
0.00554763
0.00446624
0.00368757
0.00310918
0.00265938
0.00228291
0.00193483
0.00158464
0.00108531
6.45292
2.96415
1.47102
0.749378
0.395106
0.217709
0.125591
0.075638
0.0473692
0.0307463
0.020638
0.0143068
0.0102348
0.00755123
0.00574145
0.00449319
0.00361209
0.00297403
0.00249731
0.00212506
0.0018137
0.00152858
0.00124368
0.000862877
3.77762
2.06086
1.07109
0.557931
0.300208
0.168489
0.0986431
0.0600648
0.0379171
0.0247548
0.0166891
0.0116091
0.00832828
0.0061592
0.00469271
0.00367923
0.0029629
0.00244411
0.00205723
0.00175619
0.00150455
0.00127335
0.00104686
0.000764641
2.53992
1.45481
0.778885
0.417003
0.229893
0.131538
0.0781179
0.0480575
0.030562
0.0200621
0.0135829
0.00948147
0.00682301
0.00506073
0.003867
0.00304095
0.00245667
0.00203342
0.00171783
0.00147208
0.00126584
0.00107628
0.00089551
0.000685244
1.75023
1.03868
0.574019
0.316188
0.178377
0.103846
0.0624516
0.0387674
0.0248161
0.0163709
0.0111274
0.00779365
0.00562589
0.00418565
0.00320853
0.00253164
0.00205249
0.00170518
0.00144607
0.00124414
0.0010745
0.000919793
0.000776897
0.00062017
1.26612
0.763919
0.432961
0.244289
0.140501
0.0829844
0.0504323
0.0315453
0.0203065
0.0134536
0.00917637
0.00644674
0.00466715
0.00348268
0.00267817
0.00212046
0.00172552
0.00143924
0.00122576
0.00105961
0.000920556
0.000795491
0.000683791
0.000567394
0.953798
0.579807
0.334823
0.192489
0.1124
0.0671504
0.0411541
0.0259011
0.0167501
0.0111368
0.00761834
0.00536619
0.00389496
0.00291459
0.00224838
0.00178658
0.00145977
0.00122318
0.00104719
0.000910818
0.000797556
0.000697456
0.000610961
0.00052491
0.746296
0.45413
0.265482
0.154671
0.0913269
0.0550306
0.0339437
0.0214653
0.0139312
0.00928838
0.0063686
0.00449558
0.00327051
0.00245387
0.00189915
0.0015151
0.00124386
0.00104811
0.000903209
0.000791719
0.000700109
0.000620713
0.000554231
0.000490886
0.604172
0.366318
0.215547
0.126641
0.0753388
0.0456708
0.0283008
0.017959
0.011686
0.00780717
0.00536225
0.00379179
0.00276422
0.00207961
0.00161528
0.00129463
0.00106901
0.000907034
0.00078798
0.000697245
0.000623629
0.000561098
0.000510223
0.00046373
0.503963
0.303458
0.178868
0.105542
0.0630661
0.0383776
0.0238538
0.0151719
0.00988926
0.00661556
0.00454932
0.00322151
0.00235315
0.00177552
0.00138482
0.0011161
0.000928068
0.000794048
0.000696449
0.000622904
0.000564056
0.000515041
0.000476173
0.00044212
0.431598
0.257449
0.151419
0.0894271
0.0535396
0.0326456
0.0203254
0.0129443
0.00844515
0.00565366
0.00389097
0.00275868
0.00201923
0.00152862
0.0011981
0.000972044
0.000815015
0.00070412
0.000624249
0.000564814
0.000517937
0.000479611
0.000449898
0.000425004
0.378395
0.223133
0.130533
0.0769538
0.0460675
0.0281043
0.0175084
0.0111553
0.0072801
0.00487502
0.00335683
0.00238276
0.00174806
0.00132845
0.00104724
0.000856254
0.00072479
0.00063296
0.00056764
0.000519682
0.000482406
0.000452459
0.000429708
0.00041155
0.338881
0.197159
0.114415
0.0671836
0.0401512
0.0244799
0.0152468
0.00971263
0.00633738
0.00424348
0.00292304
0.00207741
0.00152805
0.00116649
0.000925708
0.000763566
0.000653131
0.000576944
0.000523482
0.000484779
0.000455148
0.000431745
0.000414298
0.0004011
0.309511
0.177303
0.10183
0.0594499
0.0354274
0.0215693
0.013423
0.00854557
0.0055731
0.00373079
0.00257074
0.00182959
0.00134986
0.00103578
0.000828153
0.00068968
0.000596484
0.000533057
0.000489186
0.000457897
0.000434331
0.000416043
0.000402663
0.000393119
0.287954
0.162056
0.0919112
0.0532719
0.0316289
0.0192203
0.0119477
0.00760007
0.00495327
0.00331481
0.002285
0.00162888
0.00120592
0.000930648
0.000750147
0.000631043
0.00055191
0.000498825
0.000462659
0.000437278
0.000418517
0.000404251
0.000394019
0.000387162
0.272687
0.150373
0.0840424
0.0482979
0.0285571
0.0173188
0.0107534
0.0068346
0.00445152
0.00297822
0.00205402
0.00146692
0.00109013
0.00084645
0.000688061
0.000584732
0.000517008
0.000472251
0.000442234
0.000421539
0.000406586
0.000395505
0.000387743
0.000382854
0.262768
0.141526
0.077781
0.0442678
0.0260643
0.0157792
0.00978866
0.00621743
0.00404749
0.00270749
0.00186848
0.00133709
0.000997573
0.000779437
0.000638938
0.00054836
0.000489824
0.000451729
0.000426594
0.000409597
0.000397646
0.000389098
0.000383308
0.000379867
0.257696
0.135021
0.072818
0.0409885
0.0240409
0.0145378
0.00901507
0.00572445
0.00372558
0.00249217
0.00172114
0.00123417
0.000924375
0.000726619
0.000600402
0.000520001
0.000468783
0.000435975
0.000414696
0.000400602
0.000390991
0.000384417
0.000380238
0.000377855
0.257428
0.130357
0.0688476
0.0383173
0.022407
0.0135478
0.00840428
0.0053377
0.00347401
0.00232427
0.00160642
0.00115413
0.000867536
0.000685688
0.000570624
0.000498173
0.000452672
0.000423998
0.000405743
0.000393935
0.000386154
0.000381084
0.000378093
0.000376497
0.262556
0.127197
0.0656024
0.03616
0.0211071
0.0127772
0.00793626
0.00504423
0.00328412
0.00219786
0.00152014
0.00109395
0.000824808
0.000654926
0.000548262
0.000481807
0.000440631
0.000415097
0.000399158
0.000389117
0.000382757
0.000378827
0.00037669
0.000375667
0.274596
0.125246
0.0628982
0.0344245
0.0201057
0.0122059
0.00759809
0.0048353
0.00314989
0.00210871
0.00145928
0.00105143
0.000794543
0.000633075
0.000532333
0.000470127
0.000432034
0.000408759
0.000394501
0.000385754
0.00038044
0.000377378
0.000375881
0.000375233
0.296428
0.124083
0.0605753
0.0330535
0.0193891
0.0118253
0.00738301
0.00470579
0.00306756
0.00205409
0.00142182
0.00102507
0.000775595
0.000619237
0.000522122
0.000462554
0.000426413
0.000404599
0.000391451
0.000383573
0.000378966
0.000376537
0.000375439
0.000375054
0.331563
0.122796
0.058492
0.0320456
0.0189661
0.0116367
0.00728958
0.00465368
0.00303532
0.00203256
0.00140667
0.00101401
0.000767296
0.000612873
0.000517179
0.000458717
0.000423461
0.000402366
0.0003898
0.000382401
0.000378221
0.000376146
0.000375263
0.000375004
0.374846
0.119346
0.0565932
0.0314716
0.0188685
0.0116485
0.00731788
0.00467715
0.0030513
0.00204263
0.00141274
0.0010175
0.000769142
0.000613673
0.000517321
0.000458469
0.000423052
0.00040196
0.000389497
0.000382233
0.000378162
0.000376143
0.000375278
0.000375013
2.17308
2.80205
4.2307
4.01917
3.41599
2.8626
0.905754
2.17056
2.64939
2.21214
1.56041
0.87806
0.246875
1.94315
2.03729
1.46271
0.923576
0.480051
1.18933
1.86015
1.72682
1.1347
0.691576
0.375478
1.56656
1.79986
1.53361
0.975426
0.598776
0.347464
1.9137
1.74021
1.40974
0.899832
0.567562
0.35051
2.2113
1.68529
1.33333
0.872348
0.569928
0.371053
2.45521
1.6473
1.29194
0.8754
0.594469
0.405815
2.64584
1.6275
1.27841
0.901517
0.638517
0.453738
2.78548
1.62321
1.28528
0.947715
0.699574
0.515803
2.87689
1.63304
1.31329
1.01143
0.777901
0.594096
2.92251
1.65625
1.35956
1.09212
0.874791
0.691652
2.92358
1.69358
1.42269
1.18989
0.992176
0.812395
2.91258
1.74981
1.50179
1.30501
1.1323
0.961087
2.88305
1.8209
1.59538
1.43734
1.29723
1.14318
2.82677
1.90018
1.70064
1.58555
1.48807
1.36424
2.73553
1.9782
1.81283
1.74648
1.70377
1.62854
2.60008
2.04181
1.92504
1.91475
1.93993
1.93786
2.40925
2.074
2.02939
2.07985
2.19156
2.30535
2.14937
2.06295
2.11392
2.24207
2.4489
2.74542
1.80759
2.00226
2.19248
2.40862
2.7111
3.29443
1.38177
1.90843
2.32434
2.63694
3.03588
4.08688
1.0389
2.0064
2.75841
3.18777
3.69068
5.64271
2.7784
3.76057
5.2104
5.75885
5.78711
6.15197
0.327871
0.110542
0.0551146
0.0315073
0.0191495
0.0118849
0.00748322
0.00478644
0.00312226
0.00208861
0.00144267
0.0010371
0.000781995
0.000622046
0.000522703
0.00046189
0.000425229
0.000403383
0.000390474
0.000382943
0.000378674
0.000376482
0.000375476
0.000375082
0.240286
0.102446
0.0549437
0.0323826
0.0198615
0.0123641
0.00779238
0.00498434
0.00324953
0.00217129
0.00149707
0.00107332
0.000806333
0.000638462
0.000533755
0.00046931
0.000430228
0.000406807
0.000392882
0.00038467
0.000379898
0.000377234
0.000375898
0.000375273
0.200936
0.100161
0.0567248
0.0341616
0.0210446
0.0131094
0.00825999
0.00528028
0.00343933
0.00229488
0.00157881
0.0011282
0.000843619
0.000663982
0.000551263
0.000481319
0.000438492
0.000412557
0.000396949
0.00038757
0.000381917
0.000378539
0.000376657
0.000375682
0.189714
0.103137
0.0606762
0.0368897
0.0227392
0.0141504
0.00890611
0.00568768
0.00370066
0.00246547
0.0016921
0.00120466
0.000895948
0.000700144
0.000576376
0.000498793
0.000450689
0.00042114
0.000403061
0.000391944
0.000384984
0.000380584
0.000377954
0.000376436
0.193087
0.110965
0.0666306
0.0406314
0.0250047
0.0155289
0.00975874
0.00622512
0.00404594
0.00269146
0.00184272
0.00130677
0.000966217
0.000749062
0.000610679
0.000522939
0.000467743
0.000433264
0.000411764
0.000398227
0.000389459
0.000383656
0.000379955
0.000377686
0.206813
0.123159
0.0746709
0.0455192
0.0279349
0.017306
0.0108571
0.00691809
0.00449202
0.00298423
0.00203849
0.00144001
0.00105835
0.000813611
0.000656321
0.000555396
0.000490923
0.000449918
0.000423837
0.000407035
0.000395817
0.000388068
0.000382808
0.000379527
0.229437
0.139723
0.0851058
0.0517815
0.0316732
0.0195692
0.0122557
0.00780129
0.00506162
0.00335904
0.0022899
0.00161175
0.00117766
0.000897694
0.000716249
0.000598442
0.000522014
0.000472503
0.000440359
0.000419166
0.000404599
0.000394187
0.000386925
0.000382231
0.260689
0.161282
0.0984848
0.0597692
0.0364278
0.0224421
0.0140294
0.00892161
0.00578509
0.00383615
0.00261087
0.00183182
0.00133122
0.00100656
0.000794438
0.000655156
0.000563441
0.000502928
0.000462812
0.000435744
0.000416661
0.000402697
0.000392832
0.000386169
0.301409
0.188994
0.115645
0.0699947
0.0424965
0.0260974
0.0162809
0.0103424
0.00670301
0.00444246
0.00301983
0.00211317
0.00152842
0.00114714
0.000896139
0.000729593
0.000618383
0.000543709
0.000493181
0.000458324
0.000433199
0.000414481
0.000401121
0.000391685
0.353445
0.224607
0.137799
0.0831935
0.0503019
0.030777
0.019152
0.0121497
0.00786968
0.00521368
0.00354107
0.00247288
0.00178157
0.00132854
0.00102822
0.000827049
0.000690998
0.000598154
0.000534111
0.000488996
0.00045581
0.000430676
0.000412533
0.000399182
0.419601
0.270602
0.166672
0.100417
0.0604466
0.0368219
0.0228392
0.0144609
0.00935829
0.00619731
0.00420666
0.00293335
0.00210679
0.00156267
0.0011997
0.000954469
0.000786748
0.00067063
0.00058912
0.000530571
0.000486664
0.000452835
0.000428076
0.000409178
0.503725
0.330407
0.204705
0.123175
0.0737968
0.0447182
0.0276189
0.0174385
0.0112684
0.00745708
0.00505915
0.00352408
0.00252522
0.00186511
0.00142233
0.00112096
0.000912813
0.000766893
0.00066287
0.000586808
0.000528702
0.000483104
0.000449145
0.000422352
0.610878
0.408689
0.25533
0.153638
0.0916092
0.0551682
0.0338853
0.0213102
0.013737
0.00907932
0.00615536
0.00428403
0.00306458
0.00225624
0.00171152
0.00133842
0.0010786
0.000894507
0.000761508
0.000662702
0.000585889
0.000524431
0.000477677
0.000439609
0.747524
0.511693
0.323334
0.194929
0.115719
0.0691981
0.0422087
0.0264001
0.0169557
0.0111824
0.00757196
0.0052651
0.00376143
0.00276273
0.00208736
0.00162242
0.00129642
0.00106339
0.000893118
0.000764858
0.000663524
0.000580826
0.000516352
0.000462174
0.921705
0.647587
0.415278
0.251502
0.14881
0.0883215
0.0534259
0.0331774
0.0211966
0.0139315
0.00941388
0.00653712
0.00466429
0.00341966
0.0025761
0.00199318
0.00158229
0.00128647
0.0010683
0.000901992
0.000768662
0.000657706
0.000568846
0.000491696
1.14327
0.826686
0.539881
0.329585
0.194781
0.114779
0.0687783
0.0423316
0.0268535
0.0175606
0.0118271
0.00819544
0.00583838
0.00427354
0.0032122
0.00247714
0.00195707
0.00158062
0.00130092
0.00108558
0.00091069
0.000762376
0.000640188
0.000530348
1.42415
1.06156
0.708198
0.437582
0.259181
0.151869
0.0901186
0.0548893
0.0345052
0.0224083
0.0150184
0.0103727
0.00737275
0.00538688
0.00404136
0.00310897
0.00244794
0.00196776
0.00160904
0.00133069
0.00110211
0.000904739
0.000737279
0.000580929
1.77709
1.36751
0.933475
0.586222
0.349623
0.204364
0.120205
0.0723912
0.0450158
0.0289726
0.019287
0.013257
0.00939149
0.0068453
0.00512528
0.00393491
0.00309084
0.0024767
0.00201638
0.00165721
0.00135963
0.00109838
0.000869783
0.000646977
2.20254
1.76367
1.23026
0.788076
0.475926
0.27892
0.163078
0.0971491
0.0596872
0.0379987
0.0250742
0.0171215
0.0120716
0.00876904
0.00654934
0.00501817
0.00393437
0.00314613
0.00255466
0.00209178
0.001706
0.00136239
0.00105182
0.000733078
2.71218
2.26233
1.61087
1.05564
0.649461
0.384215
0.224452
0.132584
0.0804839
0.0506128
0.0330416
0.0223701
0.0156713
0.0113313
0.00843534
0.00644836
0.00504728
0.00403074
0.00326875
0.00267219
0.00217385
0.00172527
0.00130587
0.000846092
3.33412
2.87041
2.08095
1.39767
0.88109
0.530347
0.311878
0.183587
0.110334
0.068521
0.0441921
0.0296107
0.0205753
0.0147877
0.0109622
0.00835738
0.00653183
0.00521359
0.00422875
0.00345935
0.0028176
0.00223705
0.00167503
0.00100374
4.13292
3.58363
2.63346
1.81404
1.17732
0.726833
0.434239
0.256706
0.15346
0.094278
0.0600481
0.039766
0.0273635
0.0195209
0.014397
0.0109437
0.00854559
0.00682853
0.00555606
0.0045702
0.00375581
0.00302144
0.00228526
0.00134526
5.27864
4.36092
3.24632
2.29186
1.53607
0.979256
0.600054
0.359768
0.215578
0.131588
0.0828922
0.0542345
0.0369129
0.0261043
0.0191357
0.0144993
0.0113213
0.00907904
0.0074491
0.0062231
0.005258
0.00445706
0.00382803
0.0036718
6.7991
5.35291
3.91105
2.81096
1.94603
1.28648
0.814948
0.500631
0.303676
0.185519
0.116042
0.0751044
0.050538
0.0353857
0.0257469
0.019425
0.0151601
0.0122134
0.0101443
0.00868782
0.00768325
0.00705081
0.0068629
0.00738363
2.28702
3.42377
4.16636
4.08867
3.40141
3.23013
0.961437
1.59401
2.03076
2.13285
2.00615
2.30473
0.254605
1.33416
1.66912
1.74568
1.73184
2.00182
0.279314
1.34754
1.58624
1.64302
1.66025
1.88485
1.39597
1.4312
1.57826
1.62473
1.65489
1.84529
1.69252
1.51106
1.59955
1.64038
1.6811
1.84596
1.92605
1.5745
1.63039
1.67022
1.71911
1.86772
2.11038
1.62044
1.66066
1.70331
1.75848
1.89586
2.2537
1.64983
1.68702
1.73479
1.7941
1.92218
2.36058
1.66579
1.70927
1.76309
1.82398
1.94224
2.43504
1.67317
1.72864
1.78853
1.84782
1.95418
2.48187
1.67597
1.74681
1.81257
1.86717
1.9589
2.48895
1.67441
1.76564
1.83739
1.88471
1.95896
2.455
1.66837
1.78727
1.86563
1.9039
1.95781
2.37655
1.65866
1.81384
1.90043
1.92883
1.95854
2.25507
1.6461
1.847
1.9459
1.96456
1.96556
2.09025
1.63088
1.88841
2.00673
2.01826
1.98459
1.88166
1.61268
1.93947
2.09028
2.10129
2.02198
1.63016
1.59112
2.00118
2.20604
2.22879
2.09525
1.34538
1.5668
2.07283
2.36912
2.42795
2.24187
0.279452
1.5422
2.15525
2.60506
2.75266
2.54243
0.254733
1.54537
2.26849
2.96544
3.32033
3.23552
0.959448
1.69559
2.5478
3.59403
4.44036
5.21042
2.2056
2.77782
3.86307
5.36418
6.21698
6.14476
6.46986
5.66651
4.40227
3.29627
2.37413
1.63593
1.0783
0.684925
0.425045
0.262383
0.164064
0.105403
0.0701805
0.0486092
0.0350406
0.0262603
0.0204311
0.0164919
0.0138277
0.0120841
0.0110593
0.0106618
0.0109237
0.0118996
6.17656
5.83531
4.75768
3.69799
2.7797
2.00386
1.38096
0.913417
0.585466
0.369017
0.23274
0.149315
0.0986482
0.0676042
0.0482052
0.0357872
0.0276612
0.0222813
0.0187615
0.0165938
0.0154814
0.0152655
0.01586
0.0171975
4.756
6.01782
5.15589
4.03421
3.13707
2.36203
1.70541
1.17983
0.786758
0.511189
0.328466
0.212178
0.139827
0.0950161
0.0669941
0.0491645
0.037625
0.0301088
0.0253086
0.022463
0.0211073
0.0209652
0.0217944
0.0234483
3.37213
5.9664
5.52211
4.37847
3.44835
2.6884
2.02863
1.47004
1.02443
0.69129
0.456851
0.299983
0.198702
0.134513
0.0939479
0.0681079
0.0514749
0.0407496
0.0339894
0.0300373
0.0281652
0.0279242
0.0288902
0.0308225
2.77295
5.39304
5.62935
4.85062
3.76795
2.98335
2.33171
1.76494
1.28681
0.905962
0.620457
0.418021
0.280857
0.190784
0.132578
0.095099
0.0709165
0.0553608
0.0455824
0.039837
0.0370051
0.0363896
0.037363
0.0395129
2.49683
4.42363
5.57612
5.19993
4.15602
3.26951
2.60499
2.04353
1.55511
1.14402
0.816005
0.568532
0.391101
0.269001
0.187321
0.133537
0.0984006
0.0756502
0.0612533
0.0526489
0.0481575
0.0467256
0.0475107
0.049762
2.35233
3.68886
5.25467
5.29018
4.65386
3.60833
2.86812
2.29776
1.81156
1.3891
1.03344
0.748351
0.531256
0.373442
0.262943
0.187632
0.137236
0.104049
0.0827144
0.0696466
0.0624153
0.0594607
0.0597482
0.0618854
2.27609
3.23372
4.64518
5.24195
4.96011
4.05808
3.16932
2.53879
2.04526
1.6234
1.25697
0.947614
0.697799
0.505279
0.363094
0.261717
0.191407
0.14378
0.112379
0.0925428
0.0809601
0.0753982
0.0745309
0.0763575
2.23472
2.9571
4.0841
5.00554
5.02255
4.53947
3.55511
2.80618
2.26605
1.83766
1.47063
1.15158
0.880999
0.660464
0.488169
0.358741
0.264781
0.198594
0.153383
0.123717
0.105485
0.095687
0.0925242
0.0937622
2.20739
2.77975
3.66357
4.59007
4.96194
4.76475
4.04439
3.16183
2.51309
2.04176
1.66661
1.34584
1.06699
0.829247
0.633429
0.478181
0.359512
0.271836
0.209206
0.166192
0.138293
0.121937
0.11479
0.114844
2.18334
2.65632
3.36458
4.18579
4.76801
4.78831
4.44043
3.60486
2.83311
2.27023
1.85614
1.5255
1.2438
0.999033
0.789273
0.614618
0.474063
0.364749
0.282588
0.223131
0.182225
0.156357
0.142986
0.140428
2.15748
2.56012
3.14675
3.85086
4.47393
4.7244
4.59122
4.05373
3.24672
2.5723
2.07505
1.70524
1.41042
1.16068
0.944678
0.759034
0.602726
0.475001
0.373933
0.296676
0.240112
0.201519
0.178964
0.171783
2.12835
2.47621
2.97623
3.58232
4.17729
4.56662
4.59286
4.34285
3.69188
2.96345
2.36859
1.92261
1.58651
1.31944
1.09467
0.901961
0.73701
0.596819
0.480455
0.386691
0.31376
0.260004
0.224962
0.210384
2.09666
2.39663
2.82979
3.35836
3.90547
4.34382
4.52832
4.4412
4.05677
3.39918
2.75628
2.22428
1.81509
1.50201
1.2535
1.04718
0.872062
0.723086
0.596245
0.489688
0.402376
0.333338
0.283241
0.257865
2.06404
2.31735
2.69287
3.15715
3.65425
4.09834
4.38291
4.42425
4.25309
3.79067
3.19409
2.62456
2.14217
1.75833
1.45711
1.21695
1.02127
0.858058
0.719848
0.602428
0.50336
0.421102
0.35555
0.315928
2.03263
2.23677
2.55731
2.9631
3.41024
3.83805
4.16922
4.32863
4.28882
4.04517
3.58835
3.06932
2.56656
2.12444
1.7569
1.45957
1.22044
1.02632
0.86628
0.732468
0.619712
0.524621
0.444535
0.387575
2.00507
2.15518
2.41978
2.76808
3.1627
3.55952
3.90246
4.13228
4.20355
4.11465
3.84704
3.4492
3.00542
2.56483
2.16088
1.81017
1.51585
1.27294
1.07323
0.9084
0.771483
0.657021
0.560115
0.481741
1.98579
2.07462
2.28106
2.57112
2.90876
3.26123
3.58821
3.84512
3.99303
4.0092
3.90007
3.65458
3.32617
2.9569
2.58038
2.22222
1.89795
1.61412
1.37104
1.16541
0.992643
0.84746
0.726112
0.619664
1.97849
1.99804
2.14522
2.37758
2.65496
2.95157
3.23898
3.4859
3.6612
3.74524
3.73092
3.62052
3.41774
3.15656
2.86148
2.55449
2.25323
1.97024
1.71266
1.48324
1.28237
1.10755
0.959607
0.824137
1.98309
1.93027
2.01807
2.19737
2.41618
2.65136
2.88248
3.0886
3.25024
3.34834
3.38213
3.34605
3.24239
3.08173
2.88144
2.65659
2.421
2.18572
1.95944
1.74725
1.5522
1.37518
1.22061
1.07688
2.01181
1.87382
1.90556
2.04202
2.21144
2.38963
2.56057
2.71033
2.8269
2.90011
2.93035
2.91605
2.85702
2.75941
2.63153
2.48157
2.31736
2.14593
1.97302
1.80408
1.64336
1.49361
1.36055
1.24536
2.08472
1.8274
1.8133
1.92144
2.05832
2.19833
2.32412
2.42141
2.48257
2.50968
2.5065
2.4707
2.40827
2.32496
2.22617
2.11662
2.00042
1.88109
1.76169
1.64482
1.5326
1.42715
1.3329
1.25232
2.22752
1.786
1.74361
1.84283
1.97445
2.10538
2.2175
2.29033
2.32325
2.32315
2.28339
2.21326
2.12187
2.01717
1.9057
1.79244
1.68101
1.57395
1.473
1.37941
1.29454
1.22012
1.15841
1.10919
2.43344
1.7424
1.69205
1.80402
1.94553
2.08485
2.20358
2.27667
2.30709
2.29989
2.2479
2.16369
2.05832
1.94106
1.81924
1.69815
1.58141
1.47134
1.36931
1.27599
1.19202
1.11862
1.05778
1.00929
1.93716
3.05283
6.08804
6.81389
6.62056
26.496
0.83867
2.37235
3.66045
3.9679
4.05093
4.65853
0.235076
2.10544
2.75449
2.8492
2.74701
2.48541
0.261198
1.92693
2.30902
2.29557
2.1321
1.8669
1.18704
1.79975
2.02745
1.95954
1.79922
1.60771
1.32318
1.68806
1.82342
1.73442
1.59741
1.47676
1.45942
1.58557
1.66507
1.57248
1.46271
1.39529
1.56645
1.49341
1.53703
1.44802
1.3652
1.33052
1.64164
1.41324
1.43033
1.34741
1.28606
1.27137
1.68621
1.34296
1.33916
1.26261
1.21521
1.21383
1.70049
1.28113
1.25985
1.18823
1.14834
1.15693
1.69181
1.22706
1.19
1.12055
1.08457
1.10142
1.65948
1.18173
1.12794
1.05765
1.02386
1.04968
1.61601
1.1456
1.07249
0.998664
0.966762
1.00523
1.55956
1.11567
1.02244
0.94312
0.914286
0.972246
1.48864
1.08734
0.976164
0.890663
0.867486
0.955243
1.40012
1.05209
0.931099
0.840929
0.82696
0.958489
1.26937
0.991362
0.883495
0.793828
0.792226
0.986439
1.18881
0.874443
0.829945
0.750995
0.76306
1.04736
0.269595
0.746977
0.772883
0.717058
0.742144
1.14267
0.254043
0.673613
0.736979
0.696724
0.734144
1.24049
0.233174
0.680136
0.750491
0.714141
0.751495
1.34322
0.882284
0.897443
0.904609
0.850566
0.844334
1.55581
2.23937
2.12667
1.90347
1.67958
1.39841
1.55628
2.32628
1.67274
1.65548
1.79426
1.96187
2.13445
2.28783
2.39132
2.43857
2.44153
2.38767
2.29395
2.17552
2.04371
1.90748
1.77328
1.64532
1.52605
1.41653
1.31704
1.22768
1.14897
1.08166
1.02585
1.90337
1.59213
1.63792
1.81012
2.01959
2.24442
2.45215
2.6064
2.68855
2.71162
2.66637
2.57117
2.44505
2.30435
2.15977
2.01815
1.88349
1.75787
1.64226
1.53686
1.44144
1.35557
1.27753
1.20788
1.66747
1.53362
1.6364
1.84263
2.09992
2.3852
2.65127
2.83991
2.92405
2.91039
2.82974
2.71169
2.57374
2.42663
2.27922
2.13757
2.00519
1.88392
1.7743
1.67601
1.58846
1.51051
1.43907
1.36769
1.54098
1.5003
1.64497
1.88154
2.18641
2.53047
2.83502
2.99794
3.01436
2.95401
2.83908
2.69452
2.5365
2.37825
2.22773
2.08878
1.96296
1.85026
1.74986
1.66057
1.58101
1.51025
1.44676
1.37677
1.46642
1.48614
1.65836
1.9229
2.27827
2.68327
2.97495
3.07645
2.99346
2.78617
2.54749
2.32023
2.11346
1.93243
1.77804
1.64828
1.53992
1.44948
1.37365
1.30895
1.25335
1.20357
1.16542
1.11297
1.41733
1.48266
1.67505
1.97345
2.40022
2.87597
3.14227
3.09891
2.78617
2.35608
1.98595
1.68504
1.43262
1.22901
1.06696
0.939358
0.839404
0.761044
0.700226
0.651802
0.614634
0.579448
0.559709
0.524401
1.38126
1.48122
1.69556
2.04803
2.59715
3.15172
3.33406
3.08373
2.47919
1.93655
1.53372
1.22747
0.996935
0.813501
0.666077
0.548621
0.456176
0.383686
0.327336
0.283588
0.249836
0.221613
0.202152
0.179263
1.34929
1.47708
1.72284
2.16927
2.91356
3.51689
3.48026
2.95075
2.18102
1.6487
1.28468
1.01787
0.807041
0.636329
0.498631
0.389237
0.304388
0.240392
0.1924
0.156241
0.129092
0.108058
0.0928287
0.0798746
1.31525
1.46995
1.76901
2.38814
3.4019
3.87054
3.56177
2.66798
1.91332
1.43539
1.10719
0.862487
0.668357
0.514106
0.393503
0.300335
0.228858
0.174379
0.133326
0.102898
0.0807958
0.0651544
0.0545272
0.0479106
1.27755
1.46672
1.86844
2.79635
4.03405
4.12573
3.4862
2.35285
1.67547
1.24272
0.933185
0.69969
0.519758
0.384257
0.284513
0.21213
0.159791
0.121676
0.0935562
0.0726298
0.0570655
0.0458263
0.0386013
0.03555
1.23931
1.48426
2.07682
3.5043
4.58568
4.23739
3.03607
2.03314
1.44637
1.05214
0.768026
0.555325
0.397846
0.284404
0.204125
0.147868
0.108664
0.081429
0.0625167
0.049362
0.0402547
0.0342038
0.0307539
0.0298783
1.20799
1.55346
2.48737
4.48914
4.82418
4.05019
2.57452
1.74298
1.2297
0.874033
0.617545
0.433085
0.304003
0.214944
0.153669
0.111333
0.0819099
0.0614159
0.0472384
0.0376434
0.031471
0.02792
0.0265097
0.0267636
1.19483
1.72166
3.28342
5.21544
4.87707
3.39757
2.17629
1.48299
1.02823
0.709225
0.484769
0.331769
0.229117
0.160541
0.114557
0.083457
0.0622117
0.0476019
0.0376015
0.0309443
0.0268275
0.024713
0.0242698
0.0248776
1.21389
2.0516
4.53529
5.44597
4.55554
2.80889
1.84724
1.24892
0.840886
0.561114
0.375058
0.253113
0.173404
0.121035
0.0863225
0.0630984
0.0474602
0.0369363
0.0299596
0.0255358
0.0230282
0.022024
0.0221971
0.0230913
1.28731
2.64136
5.63689
5.44362
3.84665
2.40816
1.57609
1.03507
0.674322
0.439572
0.289426
0.193869
0.132667
0.0929548
0.0667965
0.0493432
0.0376231
0.0297976
0.0247123
0.0216297
0.0200598
0.019678
0.0201232
0.0211695
1.44534
3.7166
6.01441
5.14922
3.20862
2.04926
1.32008
0.840742
0.53361
0.341654
0.222837
0.148858
0.102091
0.0719652
0.0522033
0.0390552
0.0302572
0.0244252
0.0206991
0.0185324
0.0175573
0.0175231
0.0181116
0.0191617
1.70596
5.15489
6.03722
4.56373
2.81886
1.76719
1.09501
0.674065
0.418162
0.264647
0.172009
0.115096
0.079327
0.0563284
0.0412472
0.0312211
0.0245317
0.0201308
0.0173683
0.0158318
0.0152425
0.015379
0.016056
0.017049
2.09253
6.29964
5.91894
4.00931
2.44555
1.48172
0.886977
0.532647
0.326044
0.205341
0.133528
0.0896891
0.0621918
0.0445074
0.0328968
0.0251691
0.0200141
0.016635
0.0145393
0.0134154
0.0130519
0.0132645
0.0139453
0.014861
2.69806
6.76957
5.74743
3.53536
2.10901
1.22776
0.710768
0.418504
0.254059
0.159812
0.104197
0.0703248
0.0490702
0.0353799
0.0263738
0.0203665
0.0163506
0.0137153
0.0120856
0.0112263
0.0109792
0.0112034
0.0118311
0.0126599
3.74542
6.87726
5.39072
3.17736
1.79192
0.996495
0.561847
0.32719
0.198165
0.124881
0.0817301
0.0554316
0.038902
0.0282336
0.0211986
0.0164913
0.0133305
0.0112428
0.00993972
0.0092435
0.00903782
0.00922543
0.00976278
0.0105002
5.36982
6.95511
5.07596
2.76041
1.46917
0.790592
0.439739
0.255313
0.154896
0.097957
0.0643798
0.0438662
0.0309405
0.0225774
0.0170472
0.013332
0.0108205
0.00914112
0.00806855
0.00746618
0.00724927
0.00735984
0.00777508
0.00841445
7.79417
7.4465
4.57461
2.29838
1.17275
0.619473
0.343011
0.199463
0.121454
0.0771256
0.0508978
0.0348209
0.0246604
0.0180679
0.0136948
0.0107432
0.0087306
0.00736162
0.0064556
0.00590323
0.00563907
0.00563331
0.00588702
0.00640812
9.74249
7.71253
3.77921
1.8255
0.912044
0.479777
0.266587
0.155902
0.0954618
0.0609173
0.040369
0.0277169
0.0196907
0.0144653
0.0109861
0.00862513
0.00699934
0.00587102
0.00509137
0.00456687
0.00423853
0.00407873
0.00411931
0.00445761
12.3351
7.26914
3.07527
1.40315
0.69569
0.368871
0.206971
0.122067
0.0752553
0.0482805
0.0321285
0.0221304
0.0157599
0.0115958
0.00881083
0.00690924
0.00558588
0.00464837
0.00397227
0.00347393
0.00309266
0.0027854
0.00254973
0.00253114
)
;

boundaryField
{
    rotor
    {
        type            epsilonWallFunction;
        value           nonuniform List<scalar> 
144
(
2.22749
4.31171
6.4886
7.12168
7.32981
31.9162
2.22749
0.934057
0.249745
0.269622
1.18701
1.27397
1.37171
1.45111
1.50856
1.54536
1.56495
1.57267
1.57144
1.54732
1.49492
1.41534
1.31603
1.21391
0.28032
0.268498
0.250045
0.226173
0.839936
1.89415
1.89415
1.52515
1.89726
2.85051
3.22221
2.98474
2.17308
2.80205
4.2307
4.01917
3.41599
2.8626
2.17308
0.905754
0.246875
1.18933
1.56656
1.9137
2.2113
2.45521
2.64584
2.78548
2.87689
2.92251
2.92358
2.91258
2.88305
2.82677
2.73553
2.60008
2.40925
2.14937
1.80759
1.38177
1.0389
2.7784
2.7784
3.76057
5.2104
5.75885
5.78711
6.15197
2.28702
3.42377
4.16636
4.08867
3.40141
3.23013
2.28702
0.961437
0.254605
0.279314
1.39597
1.69252
1.92605
2.11038
2.2537
2.36058
2.43504
2.48187
2.48895
2.455
2.37655
2.25507
2.09025
1.88166
1.63016
1.34538
0.279452
0.254733
0.959448
2.2056
2.2056
2.77782
3.86307
5.36418
6.21698
6.14476
1.93716
3.05283
6.08804
6.81389
6.62056
26.496
1.93716
0.83867
0.235076
0.261198
1.18704
1.32318
1.45942
1.56645
1.64164
1.68621
1.70049
1.69181
1.65948
1.61601
1.55956
1.48864
1.40012
1.26937
1.18881
0.269595
0.254043
0.233174
0.882284
2.23937
2.23937
2.12667
1.90347
1.67958
1.39841
1.55628
)
;
    }
    freestream
    {
        type            inletOutlet;
        inletValue      uniform 0.000375;
        value           nonuniform List<scalar> 
96
(
0.000375
0.000375
0.000375
0.000375
0.000375
0.000375
0.000375
0.000375
0.000375
0.000375
0.000375
0.000375
0.000375
0.000375
0.000375
0.000375
0.000375
0.000375
0.000375
0.000375
0.000375
0.000375
0.000375
0.000375
0.000375
0.000375
0.000375
0.000375
0.000375
0.000375
0.000375
0.000375
0.000375
0.000375
0.000375
0.000375
0.000375
0.000375
0.000375
0.000375
0.000375
0.000375
0.000375
0.000375
0.000375
0.000375
0.0036718
0.00738363
0.0118996
0.0171975
0.0234483
0.0308225
0.0395129
0.049762
0.0618854
0.0763575
0.0937622
0.114844
0.140428
0.171783
0.210384
0.257865
0.315928
0.387575
0.481741
0.619664
0.824137
1.07688
1.24536
1.25232
1.10919
1.00929
1.02585
1.20788
1.36769
1.37677
1.11297
0.524401
0.179263
0.0798746
0.0479106
0.03555
0.0298783
0.0267636
0.0248776
0.0230913
0.0211695
0.0191617
0.017049
0.014861
0.0126599
0.0105002
0.00841445
0.00640812
0.00445761
0.00253114
)
;
    }
    frontAndBack
    {
        type            empty;
    }
}


// ************************************************************************* //
