/*--------------------------------*- C++ -*----------------------------------*\
  =========                 |
  \\      /  F ield         | OpenFOAM: The Open Source CFD Toolbox
   \\    /   O peration     | Website:  https://openfoam.org
    \\  /    A nd           | Version:  11
     \\/     M anipulation  |
\*---------------------------------------------------------------------------*/
FoamFile
{
    format      ascii;
    class       surfaceScalarField;
    location    "0.76";
    object      meshPhi;
}
// * * * * * * * * * * * * * * * * * * * * * * * * * * * * * * * * * * * * * //

dimensions      [0 3 -1 0 0 0 0];

internalField   nonuniform List<scalar> 
5640
(
1.36967e-16
9.81747e-07
2.42124e-16
1.37445e-06
3.77054e-16
1.76715e-06
-1.33923e-15
2.15984e-06
-3.68148e-15
2.55254e-06
2.94524e-06
5.95124e-15
1.85938e-18
9.81747e-07
-3.88769e-16
1.37445e-06
-2.60411e-15
1.76715e-06
1.9437e-15
2.15984e-06
8.06626e-15
2.55254e-06
2.94524e-06
-9.02981e-15
-1.16444e-16
9.81747e-07
1.86407e-16
1.37445e-06
-1.56232e-15
1.76715e-06
-4.21242e-15
2.15984e-06
-7.49842e-15
2.55254e-06
2.94524e-06
7.72276e-16
8.69803e-17
9.81747e-07
-1.01887e-16
1.37445e-06
2.69314e-15
1.76715e-06
7.4429e-15
2.15984e-06
3.25991e-15
2.55254e-06
2.94524e-06
-2.79772e-15
-4.83459e-17
9.81747e-07
3.956e-17
1.37445e-06
1.94385e-16
1.76715e-06
-1.80606e-15
2.15984e-06
-4.20843e-15
2.55254e-06
2.94524e-06
5.01335e-15
-1.80093e-16
9.81747e-07
4.3503e-18
1.37445e-06
-1.84777e-15
1.76715e-06
-3.8861e-15
2.15984e-06
3.15704e-15
2.55254e-06
2.94524e-06
4.98355e-16
2.53979e-16
9.81747e-07
2.55435e-16
1.37445e-06
2.06599e-15
1.76715e-06
4.50417e-15
2.15984e-06
-2.30999e-15
2.55254e-06
2.94524e-06
5.41088e-16
2.1669e-17
9.81747e-07
-3.21715e-16
1.37445e-06
-1.14883e-15
1.76715e-06
-5.28561e-15
2.15984e-06
-3.76677e-16
2.55254e-06
2.94524e-06
-5.63983e-15
-1.43371e-16
9.81747e-07
1.66415e-16
1.37445e-06
4.19121e-15
1.76715e-06
6.34944e-15
2.15984e-06
-8.05662e-16
2.55254e-06
2.94524e-06
8.39328e-16
-6.88023e-17
9.81747e-07
-9.20409e-17
1.37445e-06
-2.76935e-15
1.76715e-06
-3.68743e-16
2.15984e-06
-1.45081e-15
2.55254e-06
2.94524e-06
-1.76489e-16
1.66353e-16
9.81747e-07
-8.86685e-17
1.37445e-06
5.69709e-16
1.76715e-06
-2.10354e-15
2.15984e-06
9.65999e-15
2.55254e-06
2.94524e-06
5.29025e-15
-1.77782e-16
9.81747e-07
-2.05044e-17
1.37445e-06
-3.45393e-16
1.76715e-06
-4.1727e-15
2.15984e-06
-2.62218e-15
2.55254e-06
2.94524e-06
5.36949e-15
1.77787e-16
9.81747e-07
2.05104e-17
1.37445e-06
3.45456e-16
1.76715e-06
4.17263e-15
2.15984e-06
2.6225e-15
2.55254e-06
2.94524e-06
-5.36952e-15
-1.6632e-16
9.81747e-07
8.87115e-17
1.37445e-06
-5.69668e-16
1.76715e-06
2.10359e-15
2.15984e-06
-9.65996e-15
2.55254e-06
2.94524e-06
-5.29006e-15
6.88128e-17
9.81747e-07
9.20836e-17
1.37445e-06
2.76939e-15
1.76715e-06
3.68813e-16
2.15984e-06
1.45097e-15
2.55254e-06
2.94524e-06
1.76817e-16
1.43395e-16
9.81747e-07
-1.66393e-16
1.37445e-06
-4.1911e-15
1.76715e-06
-6.3494e-15
2.15984e-06
8.05731e-16
2.55254e-06
2.94524e-06
-8.39175e-16
-2.16385e-17
9.81747e-07
3.21697e-16
1.37445e-06
1.1489e-15
1.76715e-06
5.28576e-15
2.15984e-06
3.76826e-16
2.55254e-06
2.94524e-06
5.63995e-15
-2.53979e-16
9.81747e-07
-2.55384e-16
1.37445e-06
-2.066e-15
1.76715e-06
-4.50404e-15
2.15984e-06
2.31002e-15
2.55254e-06
2.94524e-06
-5.40695e-16
1.8013e-16
9.81747e-07
-4.34047e-18
1.37445e-06
1.84777e-15
1.76715e-06
3.88611e-15
2.15984e-06
-3.15692e-15
2.55254e-06
2.94524e-06
-4.98164e-16
4.83992e-17
9.81747e-07
-3.94969e-17
1.37445e-06
-1.94308e-16
1.76715e-06
1.80618e-15
2.15984e-06
4.20869e-15
2.55254e-06
2.94524e-06
-5.01325e-15
-8.6951e-17
9.81747e-07
1.01911e-16
1.37445e-06
-2.69315e-15
1.76715e-06
-7.44281e-15
2.15984e-06
-3.25974e-15
2.55254e-06
2.94524e-06
2.79799e-15
1.16498e-16
9.81747e-07
-1.86362e-16
1.37445e-06
1.56238e-15
1.76715e-06
4.21267e-15
2.15984e-06
7.49839e-15
2.55254e-06
2.94524e-06
-7.72316e-16
-1.81853e-18
9.81747e-07
3.8883e-16
1.37445e-06
2.60415e-15
1.76715e-06
-1.94352e-15
2.15984e-06
-8.06622e-15
2.55254e-06
2.94524e-06
9.02982e-15
-1.36937e-16
-2.42057e-16
-3.76949e-16
1.3393e-15
3.68156e-15
-5.95114e-15
-1.1336e-14
4.53785e-06
-4.53785e-06
-4.80778e-16
5.23599e-06
-5.23599e-06
-5.35714e-15
5.93412e-06
-5.93412e-06
-1.1303e-14
6.63225e-06
-6.63225e-06
4.87045e-15
7.33038e-06
-7.33038e-06
-1.10935e-15
8.02851e-06
-8.02851e-06
-8.15798e-15
8.72664e-06
-8.72664e-06
1.30444e-14
9.42478e-06
-9.42478e-06
5.94934e-15
1.01229e-05
-1.01229e-05
-1.99553e-15
1.0821e-05
-1.0821e-05
2.43874e-14
1.15192e-05
-1.15192e-05
1.61903e-14
1.22173e-05
-1.22173e-05
-3.27848e-14
1.29154e-05
-1.29154e-05
-3.05242e-15
1.36136e-05
-1.36136e-05
-1.44397e-14
1.43117e-05
-1.43117e-05
-2.69005e-14
1.50098e-05
-1.50098e-05
7.74124e-15
1.5708e-05
-1.5708e-05
-4.4362e-15
1.64061e-05
-1.64061e-05
-1.79997e-14
1.71042e-05
-1.71042e-05
2.18243e-14
1.78024e-05
-1.78024e-05
8.21476e-15
1.85005e-05
-1.85005e-05
-6.08206e-15
1.91986e-05
-1.91986e-05
3.89255e-14
1.98967e-05
-1.98967e-05
2.05949e-05
-2.05949e-05
9.39896e-15
4.53785e-06
5.20359e-16
5.23599e-06
7.52855e-15
5.93412e-06
-4.41135e-15
6.63225e-06
3.78396e-15
7.33038e-06
1.33847e-14
8.02851e-06
-2.10906e-15
8.72664e-06
8.52826e-15
9.42478e-06
-1.00269e-14
1.01229e-05
1.86785e-15
1.0821e-05
-2.02002e-14
1.15192e-05
-7.01127e-15
1.22173e-05
7.5118e-15
1.29154e-05
2.36082e-14
1.36136e-05
-2.04146e-15
1.43117e-05
1.48348e-14
1.50098e-05
-1.38762e-14
1.5708e-05
2.39424e-15
1.64061e-05
2.04139e-14
1.71042e-05
-7.01483e-15
1.78024e-05
1.20624e-14
1.85005e-05
-2.594e-14
1.91986e-05
1.85213e-15
1.98967e-05
2.05949e-05
-8.67597e-15
4.53785e-06
1.22923e-14
5.23599e-06
1.88332e-15
5.93412e-06
8.90254e-15
6.63225e-06
-5.10741e-15
7.33038e-06
-2.19907e-14
8.02851e-06
1.22655e-14
8.72664e-06
-5.37382e-15
9.42478e-06
4.45673e-15
1.01229e-05
-1.43047e-14
1.0821e-05
-7.32558e-15
1.15192e-05
7.04114e-15
1.22173e-05
2.39951e-14
1.29154e-05
-7.55525e-15
1.36136e-05
9.79894e-15
1.43117e-05
-1.62334e-14
1.50098e-05
4.02975e-14
1.5708e-05
1.4448e-14
1.64061e-05
-1.37018e-14
1.71042e-05
-7.89269e-15
1.78024e-05
-3.92509e-14
1.85005e-05
4.27553e-14
1.91986e-05
-8.84544e-15
1.98967e-05
2.05949e-05
5.9861e-15
4.53785e-06
2.19056e-16
5.23599e-06
-6.43554e-15
5.93412e-06
6.06396e-15
6.63225e-06
-2.09263e-15
7.33038e-06
1.61777e-14
8.02851e-06
-1.88301e-14
8.72664e-06
-2.35044e-15
9.42478e-06
9.17269e-15
1.01229e-05
-4.70969e-15
1.0821e-05
2.16266e-14
1.15192e-05
-2.9647e-14
1.22173e-05
-9.28754e-15
1.29154e-05
-1.89072e-14
1.36136e-05
4.46683e-15
1.43117e-05
3.016e-14
1.50098e-05
-2.62149e-14
1.5708e-05
4.40294e-16
1.64061e-05
-2.11699e-14
1.71042e-05
1.87172e-14
1.78024e-05
-3.92032e-15
1.85005e-05
-2.915e-14
1.91986e-05
1.52332e-14
1.98967e-05
2.05949e-05
6.71534e-15
4.53785e-06
-7.30678e-15
5.23599e-06
1.11013e-14
5.93412e-06
-4.24107e-15
6.63225e-06
1.51027e-14
7.33038e-06
-5.20851e-15
8.02851e-06
1.70135e-14
8.72664e-06
-3.9399e-15
9.42478e-06
-2.93498e-16
1.01229e-05
6.61122e-15
1.0821e-05
1.37062e-14
1.15192e-05
1.01848e-14
1.22173e-05
1.82176e-14
1.29154e-05
1.43701e-14
1.36136e-05
2.33434e-14
1.43117e-05
-2.53411e-14
1.50098e-05
2.90753e-14
1.5708e-05
-7.82562e-15
1.64061e-05
3.5416e-14
1.71042e-05
-4.50868e-15
1.78024e-05
4.23725e-14
1.85005e-05
-5.8619e-16
1.91986e-05
-8.73211e-15
1.98967e-05
2.05949e-05
-4.63009e-15
4.53785e-06
5.79738e-15
5.23599e-06
-1.61503e-14
5.93412e-06
-5.97449e-15
6.63225e-06
-8.55469e-15
7.33038e-06
4.22401e-15
8.02851e-06
-8.18733e-15
8.72664e-06
6.99952e-15
9.42478e-06
-2.42296e-14
1.01229e-05
-7.76925e-15
1.0821e-05
-2.27645e-14
1.15192e-05
8.35075e-15
1.22173e-05
-7.40192e-15
1.29154e-05
2.82649e-14
1.36136e-05
-4.57097e-14
1.43117e-05
-8.22331e-15
1.50098e-05
-2.82259e-14
1.5708e-05
-2.33905e-15
1.64061e-05
-6.94557e-15
1.71042e-05
2.21508e-14
1.78024e-05
-3.41048e-14
1.85005e-05
-3.7403e-15
1.91986e-05
-3.23466e-14
1.98967e-05
2.05949e-05
-8.92498e-15
4.53785e-06
-2.28872e-15
5.23599e-06
-2.22374e-15
5.93412e-06
6.61642e-15
6.63225e-06
-3.38719e-15
7.33038e-06
-3.90737e-15
8.02851e-06
-6.41845e-15
8.72664e-06
-7.15798e-15
9.42478e-06
6.80992e-15
1.01229e-05
6.98332e-15
1.0821e-05
-9.06456e-15
1.15192e-05
6.75933e-15
1.22173e-05
-2.88872e-14
1.29154e-05
-1.22318e-14
1.36136e-05
4.80472e-15
1.43117e-05
2.50261e-14
1.50098e-05
3.86184e-15
1.5708e-05
3.60933e-15
1.64061e-05
-2.04832e-14
1.71042e-05
-2.17587e-14
1.78024e-05
3.47031e-15
1.85005e-05
2.90382e-14
1.91986e-05
-1.66377e-15
1.98967e-05
2.05949e-05
6.21581e-15
4.53785e-06
-3.87901e-15
5.23599e-06
1.54225e-14
5.93412e-06
-7.06448e-15
6.63225e-06
-2.21057e-15
7.33038e-06
1.42908e-15
8.02851e-06
-5.49201e-15
8.72664e-06
1.32266e-14
9.42478e-06
6.04546e-15
1.01229e-05
-1.74499e-14
1.0821e-05
2.08882e-14
1.15192e-05
-2.14451e-14
1.22173e-05
1.9135e-14
1.29154e-05
-7.31603e-15
1.36136e-05
3.8487e-14
1.43117e-05
-1.29222e-14
1.50098e-05
-1.88234e-15
1.5708e-05
5.7163e-15
1.64061e-05
-7.58501e-15
1.71042e-05
2.76616e-14
1.78024e-05
1.4099e-14
1.85005e-05
-5.31392e-14
1.91986e-05
3.90821e-14
1.98967e-05
2.05949e-05
-1.49839e-15
4.53785e-06
1.08972e-14
5.23599e-06
-6.59913e-15
5.93412e-06
7.26611e-15
6.63225e-06
6.1747e-15
7.33038e-06
2.48898e-15
8.02851e-06
-9.64274e-16
8.72664e-06
-4.36455e-15
9.42478e-06
-8.89971e-15
1.01229e-05
1.38634e-14
1.0821e-05
1.0692e-14
1.15192e-05
6.2519e-15
1.22173e-05
-1.26448e-16
1.29154e-05
-3.43828e-15
1.36136e-05
-1.10403e-14
1.43117e-05
-1.77632e-14
1.50098e-05
1.76801e-14
1.5708e-05
9.95591e-15
1.64061e-05
3.33021e-15
1.71042e-05
-3.29691e-14
1.78024e-05
-1.04173e-14
1.85005e-05
3.00685e-14
1.91986e-05
-5.99922e-14
1.98967e-05
2.05949e-05
5.17002e-15
4.53785e-06
-7.45561e-15
5.23599e-06
-7.56269e-16
5.93412e-06
6.83992e-15
6.63225e-06
-9.97402e-15
7.33038e-06
-1.66409e-15
8.02851e-06
9.21894e-15
8.72664e-06
-1.3459e-14
9.42478e-06
2.3223e-14
1.01229e-05
1.04729e-14
1.0821e-05
-1.72714e-14
1.15192e-05
-3.02508e-15
1.22173e-05
1.13986e-14
1.29154e-05
-1.98165e-14
1.36136e-05
-4.67726e-15
1.43117e-05
5.03068e-14
1.50098e-05
-2.40436e-14
1.5708e-05
-6.65635e-15
1.64061e-05
1.42646e-14
1.71042e-05
1.65252e-15
1.78024e-05
-6.80613e-15
1.85005e-05
1.44433e-14
1.91986e-05
5.07601e-14
1.98967e-05
2.05949e-05
-6.19711e-15
4.53785e-06
2.88724e-17
5.23599e-06
1.15116e-14
5.93412e-06
-2.06256e-14
6.63225e-06
5.36693e-15
7.33038e-06
1.22184e-15
8.02851e-06
-4.72051e-17
8.72664e-06
1.23942e-14
9.42478e-06
-1.32258e-14
1.01229e-05
-1.88934e-14
1.0821e-05
-4.96223e-15
1.15192e-05
-7.15239e-15
1.22173e-05
-1.4886e-14
1.29154e-05
3.53399e-14
1.36136e-05
-1.01175e-18
1.43117e-05
-4.3137e-14
1.50098e-05
1.35628e-14
1.5708e-05
-2.82529e-14
1.64061e-05
2.45578e-15
1.71042e-05
-1.02395e-14
1.78024e-05
2.38028e-14
1.85005e-05
1.38736e-14
1.91986e-05
-4.5562e-14
1.98967e-05
2.05949e-05
-1.90645e-15
4.53785e-06
1.13095e-15
5.23599e-06
-2.16617e-14
5.93412e-06
9.62438e-15
6.63225e-06
1.51374e-14
7.33038e-06
-1.40646e-14
8.02851e-06
8.09315e-15
8.72664e-06
-2.69596e-14
9.42478e-06
-1.96562e-15
1.01229e-05
2.97183e-14
1.0821e-05
-1.17446e-14
1.15192e-05
1.98683e-14
1.22173e-05
-2.74448e-14
1.29154e-05
-2.06143e-14
1.36136e-05
1.60431e-14
1.43117e-05
-4.61208e-15
1.50098e-05
4.69398e-15
1.5708e-05
4.79693e-14
1.64061e-05
-1.37384e-14
1.71042e-05
3.23726e-14
1.78024e-05
-3.51865e-14
1.85005e-05
-2.49065e-14
1.91986e-05
7.19136e-14
1.98967e-05
2.05949e-05
1.90661e-15
4.53785e-06
-1.13052e-15
5.23599e-06
2.16618e-14
5.93412e-06
-9.62386e-15
6.63225e-06
-1.5137e-14
7.33038e-06
1.40655e-14
8.02851e-06
-8.09205e-15
8.72664e-06
2.69603e-14
9.42478e-06
1.96569e-15
1.01229e-05
-2.97164e-14
1.0821e-05
1.17456e-14
1.15192e-05
-1.98656e-14
1.22173e-05
2.74465e-14
1.29154e-05
2.06149e-14
1.36136e-05
-1.60406e-14
1.43117e-05
4.61562e-15
1.50098e-05
-4.69119e-15
1.5708e-05
-4.79675e-14
1.64061e-05
1.3743e-14
1.71042e-05
-3.23682e-14
1.78024e-05
3.51878e-14
1.85005e-05
2.49052e-14
1.91986e-05
-7.19177e-14
1.98967e-05
2.05949e-05
6.19734e-15
4.53785e-06
-2.85463e-17
5.23599e-06
-1.15116e-14
5.93412e-06
2.06263e-14
6.63225e-06
-5.36664e-15
7.33038e-06
-1.22113e-15
8.02851e-06
4.76676e-17
8.72664e-06
-1.23937e-14
9.42478e-06
1.32271e-14
1.01229e-05
1.88942e-14
1.0821e-05
4.9638e-15
1.15192e-05
7.15563e-15
1.22173e-05
1.48862e-14
1.29154e-05
-3.53384e-14
1.36136e-05
2.56431e-18
1.43117e-05
4.31377e-14
1.50098e-05
-1.35593e-14
1.5708e-05
2.82575e-14
1.64061e-05
-2.44985e-15
1.71042e-05
1.02421e-14
1.78024e-05
-2.38041e-14
1.85005e-05
-1.38731e-14
1.91986e-05
4.55664e-14
1.98967e-05
2.05949e-05
-5.16997e-15
4.53785e-06
7.45548e-15
5.23599e-06
7.56852e-16
5.93412e-06
-6.83931e-15
6.63225e-06
9.97414e-15
7.33038e-06
1.66478e-15
8.02851e-06
-9.21828e-15
8.72664e-06
1.34588e-14
9.42478e-06
-2.32196e-14
1.01229e-05
-1.04718e-14
1.0821e-05
1.7273e-14
1.15192e-05
3.02741e-15
1.22173e-05
-1.13968e-14
1.29154e-05
1.98177e-14
1.36136e-05
4.68104e-15
1.43117e-05
-5.03071e-14
1.50098e-05
2.40459e-14
1.5708e-05
6.65911e-15
1.64061e-05
-1.42611e-14
1.71042e-05
-1.65058e-15
1.78024e-05
6.81198e-15
1.85005e-05
-1.44428e-14
1.91986e-05
-5.07569e-14
1.98967e-05
2.05949e-05
1.49867e-15
4.53785e-06
-1.0897e-14
5.23599e-06
6.59973e-15
5.93412e-06
-7.26571e-15
6.63225e-06
-6.17521e-15
7.33038e-06
-2.48834e-15
8.02851e-06
9.65259e-16
8.72664e-06
4.36563e-15
9.42478e-06
8.90139e-15
1.01229e-05
-1.38633e-14
1.0821e-05
-1.06906e-14
1.15192e-05
-6.25078e-15
1.22173e-05
1.28556e-16
1.29154e-05
3.43981e-15
1.36136e-05
1.10446e-14
1.43117e-05
1.77629e-14
1.50098e-05
-1.76813e-14
1.5708e-05
-9.95335e-15
1.64061e-05
-3.32904e-15
1.71042e-05
3.29635e-14
1.78024e-05
1.04226e-14
1.85005e-05
-3.00662e-14
1.91986e-05
5.99935e-14
1.98967e-05
2.05949e-05
-6.21579e-15
4.53785e-06
3.87942e-15
5.23599e-06
-1.5422e-14
5.93412e-06
7.06482e-15
6.63225e-06
2.21072e-15
7.33038e-06
-1.42887e-15
8.02851e-06
5.49468e-15
8.72664e-06
-1.32256e-14
9.42478e-06
-6.04604e-15
1.01229e-05
1.74509e-14
1.0821e-05
-2.08859e-14
1.15192e-05
2.14452e-14
1.22173e-05
-1.91338e-14
1.29154e-05
7.31676e-15
1.36136e-05
-3.84848e-14
1.43117e-05
1.29222e-14
1.50098e-05
1.88495e-15
1.5708e-05
-5.71548e-15
1.64061e-05
7.5879e-15
1.71042e-05
-2.76585e-14
1.78024e-05
-1.41025e-14
1.85005e-05
5.3145e-14
1.91986e-05
-3.90857e-14
1.98967e-05
2.05949e-05
8.92496e-15
4.53785e-06
2.28926e-15
5.23599e-06
2.22407e-15
5.93412e-06
-6.61633e-15
6.63225e-06
3.38808e-15
7.33038e-06
3.90774e-15
8.02851e-06
6.41965e-15
8.72664e-06
7.15875e-15
9.42478e-06
-6.80945e-15
1.01229e-05
-6.98299e-15
1.0821e-05
9.06588e-15
1.15192e-05
-6.75853e-15
1.22173e-05
2.88895e-14
1.29154e-05
1.22345e-14
1.36136e-05
-4.80274e-15
1.43117e-05
-2.50234e-14
1.50098e-05
-3.86085e-15
1.5708e-05
-3.60657e-15
1.64061e-05
2.04863e-14
1.71042e-05
2.176e-14
1.78024e-05
-3.46913e-15
1.85005e-05
-2.90382e-14
1.91986e-05
1.66297e-15
1.98967e-05
2.05949e-05
4.63054e-15
4.53785e-06
-5.79729e-15
5.23599e-06
1.61504e-14
5.93412e-06
5.97453e-15
6.63225e-06
8.55575e-15
7.33038e-06
-4.22358e-15
8.02851e-06
8.18684e-15
8.72664e-06
-6.99868e-15
9.42478e-06
2.42307e-14
1.01229e-05
7.76992e-15
1.0821e-05
2.2766e-14
1.15192e-05
-8.34815e-15
1.22173e-05
7.40473e-15
1.29154e-05
-2.82648e-14
1.36136e-05
4.57096e-14
1.43117e-05
8.2251e-15
1.50098e-05
2.82225e-14
1.5708e-05
2.33857e-15
1.64061e-05
6.94448e-15
1.71042e-05
-2.21526e-14
1.78024e-05
3.41084e-14
1.85005e-05
3.74154e-15
1.91986e-05
3.23461e-14
1.98967e-05
2.05949e-05
-6.71478e-15
4.53785e-06
7.30668e-15
5.23599e-06
-1.11009e-14
5.93412e-06
4.24124e-15
6.63225e-06
-1.51016e-14
7.33038e-06
5.20955e-15
8.02851e-06
-1.70126e-14
8.72664e-06
3.94133e-15
9.42478e-06
2.95119e-16
1.01229e-05
-6.61084e-15
1.0821e-05
-1.37044e-14
1.15192e-05
-1.01831e-14
1.22173e-05
-1.82161e-14
1.29154e-05
-1.43683e-14
1.36136e-05
-2.33385e-14
1.43117e-05
2.53444e-14
1.50098e-05
-2.90737e-14
1.5708e-05
7.82885e-15
1.64061e-05
-3.54149e-14
1.71042e-05
4.51153e-15
1.78024e-05
-4.23702e-14
1.85005e-05
5.87652e-16
1.91986e-05
8.73631e-15
1.98967e-05
2.05949e-05
-5.98547e-15
4.53785e-06
-2.18846e-16
5.23599e-06
6.43544e-15
5.93412e-06
-6.06426e-15
6.63225e-06
2.0942e-15
7.33038e-06
-1.61759e-14
8.02851e-06
1.88314e-14
8.72664e-06
2.35083e-15
9.42478e-06
-9.17178e-15
1.01229e-05
4.71083e-15
1.0821e-05
-2.16268e-14
1.15192e-05
2.96457e-14
1.22173e-05
9.2891e-15
1.29154e-05
1.89069e-14
1.36136e-05
-4.46717e-15
1.43117e-05
-3.01516e-14
1.50098e-05
2.62192e-14
1.5708e-05
-4.34282e-16
1.64061e-05
2.11725e-14
1.71042e-05
-1.87144e-14
1.78024e-05
3.92327e-15
1.85005e-05
2.91612e-14
1.91986e-05
-1.52295e-14
1.98967e-05
2.05949e-05
8.67611e-15
4.53785e-06
-1.22922e-14
5.23599e-06
-1.88282e-15
5.93412e-06
-8.90254e-15
6.63225e-06
5.1093e-15
7.33038e-06
2.1991e-14
8.02851e-06
-1.22646e-14
8.72664e-06
5.37545e-15
9.42478e-06
-4.45653e-15
1.01229e-05
1.43061e-14
1.0821e-05
7.32559e-15
1.15192e-05
-7.0396e-15
1.22173e-05
-2.3995e-14
1.29154e-05
7.55325e-15
1.36136e-05
-9.79964e-15
1.43117e-05
1.6242e-14
1.50098e-05
-4.02914e-14
1.5708e-05
-1.44458e-14
1.64061e-05
1.37034e-14
1.71042e-05
7.89871e-15
1.78024e-05
3.92497e-14
1.85005e-05
-4.27487e-14
1.91986e-05
8.8529e-15
1.98967e-05
2.05949e-05
-9.39879e-15
4.53785e-06
-5.20108e-16
5.23599e-06
-7.52831e-15
5.93412e-06
4.41154e-15
6.63225e-06
-3.78257e-15
7.33038e-06
-1.3384e-14
8.02851e-06
2.10937e-15
8.72664e-06
-8.52924e-15
9.42478e-06
1.00273e-14
1.01229e-05
-1.86579e-15
1.0821e-05
2.02018e-14
1.15192e-05
7.01364e-15
1.22173e-05
-7.50854e-15
1.29154e-05
-2.36073e-14
1.36136e-05
2.04297e-15
1.43117e-05
-1.48293e-14
1.50098e-05
1.38825e-14
1.5708e-05
-2.3906e-15
1.64061e-05
-2.0407e-14
1.71042e-05
7.02002e-15
1.78024e-05
-1.20683e-14
1.85005e-05
2.59471e-14
1.91986e-05
-1.84553e-15
1.98967e-05
2.05949e-05
1.13362e-14
4.53785e-06
4.81265e-16
5.23599e-06
5.35742e-15
5.93412e-06
1.13034e-14
6.63225e-06
-4.86901e-15
7.33038e-06
1.1097e-15
8.02851e-06
8.15799e-15
8.72664e-06
-1.30431e-14
9.42478e-06
-5.94841e-15
1.01229e-05
1.99648e-15
1.0821e-05
-2.43879e-14
1.15192e-05
-1.61895e-14
1.22173e-05
3.27874e-14
1.29154e-05
3.05193e-15
1.36136e-05
1.44402e-14
1.43117e-05
2.69031e-14
1.50098e-05
-7.73632e-15
1.5708e-05
4.43882e-15
1.64061e-05
1.80009e-14
1.71042e-05
-2.18179e-14
1.78024e-05
-8.20965e-15
1.85005e-05
6.08304e-15
1.91986e-05
-3.89174e-14
1.98967e-05
2.05949e-05
1.36939e-16
9.81747e-07
2.42143e-16
1.37445e-06
3.77054e-16
1.76715e-06
-1.33926e-15
2.15984e-06
-3.68141e-15
2.55254e-06
2.94524e-06
5.95124e-15
1.85938e-18
9.81747e-07
-3.88769e-16
1.37445e-06
-2.60411e-15
1.76715e-06
1.9437e-15
2.15984e-06
8.06626e-15
2.55254e-06
2.94524e-06
-9.02981e-15
-1.16444e-16
9.81747e-07
1.86407e-16
1.37445e-06
-1.56232e-15
1.76715e-06
-4.21242e-15
2.15984e-06
-7.49842e-15
2.55254e-06
2.94524e-06
7.72276e-16
8.69803e-17
9.81747e-07
-1.01887e-16
1.37445e-06
2.69314e-15
1.76715e-06
7.4429e-15
2.15984e-06
3.25991e-15
2.55254e-06
2.94524e-06
-2.79772e-15
-4.83459e-17
9.81747e-07
3.956e-17
1.37445e-06
1.94385e-16
1.76715e-06
-1.80606e-15
2.15984e-06
-4.20843e-15
2.55254e-06
2.94524e-06
5.01335e-15
-1.80093e-16
9.81747e-07
4.3503e-18
1.37445e-06
-1.84777e-15
1.76715e-06
-3.8861e-15
2.15984e-06
3.15704e-15
2.55254e-06
2.94524e-06
4.98355e-16
2.53979e-16
9.81747e-07
2.55435e-16
1.37445e-06
2.06599e-15
1.76715e-06
4.50417e-15
2.15984e-06
-2.30999e-15
2.55254e-06
2.94524e-06
5.41088e-16
2.1669e-17
9.81747e-07
-3.21715e-16
1.37445e-06
-1.14883e-15
1.76715e-06
-5.28561e-15
2.15984e-06
-3.76677e-16
2.55254e-06
2.94524e-06
-5.63983e-15
-1.43371e-16
9.81747e-07
1.66415e-16
1.37445e-06
4.19121e-15
1.76715e-06
6.34944e-15
2.15984e-06
-8.05662e-16
2.55254e-06
2.94524e-06
8.39328e-16
-6.88023e-17
9.81747e-07
-9.20409e-17
1.37445e-06
-2.76935e-15
1.76715e-06
-3.68743e-16
2.15984e-06
-1.45081e-15
2.55254e-06
2.94524e-06
-1.76489e-16
1.66353e-16
9.81747e-07
-8.86685e-17
1.37445e-06
5.69709e-16
1.76715e-06
-2.10354e-15
2.15984e-06
9.65999e-15
2.55254e-06
2.94524e-06
5.29025e-15
-1.77782e-16
9.81747e-07
-2.05044e-17
1.37445e-06
-3.45393e-16
1.76715e-06
-4.1727e-15
2.15984e-06
-2.62218e-15
2.55254e-06
2.94524e-06
5.36949e-15
1.77787e-16
9.81747e-07
2.05104e-17
1.37445e-06
3.45456e-16
1.76715e-06
4.17263e-15
2.15984e-06
2.6225e-15
2.55254e-06
2.94524e-06
-5.36952e-15
-1.6632e-16
9.81747e-07
8.87115e-17
1.37445e-06
-5.69668e-16
1.76715e-06
2.10359e-15
2.15984e-06
-9.65996e-15
2.55254e-06
2.94524e-06
-5.29006e-15
6.88128e-17
9.81747e-07
9.20836e-17
1.37445e-06
2.76939e-15
1.76715e-06
3.68813e-16
2.15984e-06
1.45097e-15
2.55254e-06
2.94524e-06
1.76817e-16
1.43395e-16
9.81747e-07
-1.66393e-16
1.37445e-06
-4.1911e-15
1.76715e-06
-6.3494e-15
2.15984e-06
8.05731e-16
2.55254e-06
2.94524e-06
-8.39175e-16
-2.16385e-17
9.81747e-07
3.21697e-16
1.37445e-06
1.1489e-15
1.76715e-06
5.28576e-15
2.15984e-06
3.76826e-16
2.55254e-06
2.94524e-06
5.63995e-15
-2.53979e-16
9.81747e-07
-2.55384e-16
1.37445e-06
-2.066e-15
1.76715e-06
-4.50404e-15
2.15984e-06
2.31002e-15
2.55254e-06
2.94524e-06
-5.40695e-16
1.8013e-16
9.81747e-07
-4.34047e-18
1.37445e-06
1.84777e-15
1.76715e-06
3.88611e-15
2.15984e-06
-3.15692e-15
2.55254e-06
2.94524e-06
-4.98164e-16
4.83992e-17
9.81747e-07
-3.94969e-17
1.37445e-06
-1.94308e-16
1.76715e-06
1.80618e-15
2.15984e-06
4.20869e-15
2.55254e-06
2.94524e-06
-5.01325e-15
-8.6951e-17
9.81747e-07
1.01911e-16
1.37445e-06
-2.69315e-15
1.76715e-06
-7.44281e-15
2.15984e-06
-3.25974e-15
2.55254e-06
2.94524e-06
2.79799e-15
1.16498e-16
9.81747e-07
-1.86362e-16
1.37445e-06
1.56238e-15
1.76715e-06
4.21267e-15
2.15984e-06
7.49839e-15
2.55254e-06
2.94524e-06
-7.72316e-16
-1.81853e-18
9.81747e-07
3.8883e-16
1.37445e-06
2.60415e-15
1.76715e-06
-1.94352e-15
2.15984e-06
-8.06622e-15
2.55254e-06
2.94524e-06
9.02982e-15
-1.36944e-16
-2.42095e-16
-3.76949e-16
1.33924e-15
3.68156e-15
-5.95121e-15
-1.13359e-14
4.53785e-06
-4.80983e-16
5.23599e-06
-5.35702e-15
5.93412e-06
-1.1303e-14
6.63225e-06
4.86934e-15
7.33038e-06
-1.10995e-15
8.02851e-06
-8.15797e-15
8.72664e-06
1.30444e-14
9.42478e-06
5.95047e-15
1.01229e-05
-1.99634e-15
1.0821e-05
2.43878e-14
1.15192e-05
1.61908e-14
1.22173e-05
-3.27857e-14
1.29154e-05
-3.05241e-15
1.36136e-05
-1.44397e-14
1.43117e-05
-2.69005e-14
1.50098e-05
7.74009e-15
1.5708e-05
-4.43981e-15
1.64061e-05
-1.79984e-14
1.71042e-05
2.18243e-14
1.78024e-05
8.21209e-15
1.85005e-05
-6.07926e-15
1.91986e-05
3.89211e-14
1.98967e-05
2.05949e-05
9.39896e-15
4.53785e-06
5.20359e-16
5.23599e-06
7.52855e-15
5.93412e-06
-4.41135e-15
6.63225e-06
3.78396e-15
7.33038e-06
1.33847e-14
8.02851e-06
-2.10906e-15
8.72664e-06
8.52826e-15
9.42478e-06
-1.00269e-14
1.01229e-05
1.86785e-15
1.0821e-05
-2.02002e-14
1.15192e-05
-7.01127e-15
1.22173e-05
7.5118e-15
1.29154e-05
2.36082e-14
1.36136e-05
-2.04146e-15
1.43117e-05
1.48348e-14
1.50098e-05
-1.38762e-14
1.5708e-05
2.39424e-15
1.64061e-05
2.04139e-14
1.71042e-05
-7.01483e-15
1.78024e-05
1.20624e-14
1.85005e-05
-2.594e-14
1.91986e-05
1.85213e-15
1.98967e-05
2.05949e-05
-8.67597e-15
4.53785e-06
1.22923e-14
5.23599e-06
1.88332e-15
5.93412e-06
8.90254e-15
6.63225e-06
-5.10741e-15
7.33038e-06
-2.19907e-14
8.02851e-06
1.22655e-14
8.72664e-06
-5.37382e-15
9.42478e-06
4.45673e-15
1.01229e-05
-1.43047e-14
1.0821e-05
-7.32558e-15
1.15192e-05
7.04114e-15
1.22173e-05
2.39951e-14
1.29154e-05
-7.55525e-15
1.36136e-05
9.79894e-15
1.43117e-05
-1.62334e-14
1.50098e-05
4.02975e-14
1.5708e-05
1.4448e-14
1.64061e-05
-1.37018e-14
1.71042e-05
-7.89269e-15
1.78024e-05
-3.92509e-14
1.85005e-05
4.27553e-14
1.91986e-05
-8.84544e-15
1.98967e-05
2.05949e-05
5.9861e-15
4.53785e-06
2.19056e-16
5.23599e-06
-6.43554e-15
5.93412e-06
6.06396e-15
6.63225e-06
-2.09263e-15
7.33038e-06
1.61777e-14
8.02851e-06
-1.88301e-14
8.72664e-06
-2.35044e-15
9.42478e-06
9.17269e-15
1.01229e-05
-4.70969e-15
1.0821e-05
2.16266e-14
1.15192e-05
-2.9647e-14
1.22173e-05
-9.28754e-15
1.29154e-05
-1.89072e-14
1.36136e-05
4.46683e-15
1.43117e-05
3.016e-14
1.50098e-05
-2.62149e-14
1.5708e-05
4.40294e-16
1.64061e-05
-2.11699e-14
1.71042e-05
1.87172e-14
1.78024e-05
-3.92032e-15
1.85005e-05
-2.915e-14
1.91986e-05
1.52332e-14
1.98967e-05
2.05949e-05
6.71534e-15
4.53785e-06
-7.30678e-15
5.23599e-06
1.11013e-14
5.93412e-06
-4.24107e-15
6.63225e-06
1.51027e-14
7.33038e-06
-5.20851e-15
8.02851e-06
1.70135e-14
8.72664e-06
-3.9399e-15
9.42478e-06
-2.93498e-16
1.01229e-05
6.61122e-15
1.0821e-05
1.37062e-14
1.15192e-05
1.01848e-14
1.22173e-05
1.82176e-14
1.29154e-05
1.43701e-14
1.36136e-05
2.33434e-14
1.43117e-05
-2.53411e-14
1.50098e-05
2.90753e-14
1.5708e-05
-7.82562e-15
1.64061e-05
3.5416e-14
1.71042e-05
-4.50868e-15
1.78024e-05
4.23725e-14
1.85005e-05
-5.8619e-16
1.91986e-05
-8.73211e-15
1.98967e-05
2.05949e-05
-4.63009e-15
4.53785e-06
5.79738e-15
5.23599e-06
-1.61503e-14
5.93412e-06
-5.97449e-15
6.63225e-06
-8.55469e-15
7.33038e-06
4.22401e-15
8.02851e-06
-8.18733e-15
8.72664e-06
6.99952e-15
9.42478e-06
-2.42296e-14
1.01229e-05
-7.76925e-15
1.0821e-05
-2.27645e-14
1.15192e-05
8.35075e-15
1.22173e-05
-7.40192e-15
1.29154e-05
2.82649e-14
1.36136e-05
-4.57097e-14
1.43117e-05
-8.22331e-15
1.50098e-05
-2.82259e-14
1.5708e-05
-2.33905e-15
1.64061e-05
-6.94557e-15
1.71042e-05
2.21508e-14
1.78024e-05
-3.41048e-14
1.85005e-05
-3.7403e-15
1.91986e-05
-3.23466e-14
1.98967e-05
2.05949e-05
-8.92498e-15
4.53785e-06
-2.28872e-15
5.23599e-06
-2.22374e-15
5.93412e-06
6.61642e-15
6.63225e-06
-3.38719e-15
7.33038e-06
-3.90737e-15
8.02851e-06
-6.41845e-15
8.72664e-06
-7.15798e-15
9.42478e-06
6.80992e-15
1.01229e-05
6.98332e-15
1.0821e-05
-9.06456e-15
1.15192e-05
6.75933e-15
1.22173e-05
-2.88872e-14
1.29154e-05
-1.22318e-14
1.36136e-05
4.80472e-15
1.43117e-05
2.50261e-14
1.50098e-05
3.86184e-15
1.5708e-05
3.60933e-15
1.64061e-05
-2.04832e-14
1.71042e-05
-2.17587e-14
1.78024e-05
3.47031e-15
1.85005e-05
2.90382e-14
1.91986e-05
-1.66377e-15
1.98967e-05
2.05949e-05
6.21581e-15
4.53785e-06
-3.87901e-15
5.23599e-06
1.54225e-14
5.93412e-06
-7.06448e-15
6.63225e-06
-2.21057e-15
7.33038e-06
1.42908e-15
8.02851e-06
-5.49201e-15
8.72664e-06
1.32266e-14
9.42478e-06
6.04546e-15
1.01229e-05
-1.74499e-14
1.0821e-05
2.08882e-14
1.15192e-05
-2.14451e-14
1.22173e-05
1.9135e-14
1.29154e-05
-7.31603e-15
1.36136e-05
3.8487e-14
1.43117e-05
-1.29222e-14
1.50098e-05
-1.88234e-15
1.5708e-05
5.7163e-15
1.64061e-05
-7.58501e-15
1.71042e-05
2.76616e-14
1.78024e-05
1.4099e-14
1.85005e-05
-5.31392e-14
1.91986e-05
3.90821e-14
1.98967e-05
2.05949e-05
-1.49839e-15
4.53785e-06
1.08972e-14
5.23599e-06
-6.59913e-15
5.93412e-06
7.26611e-15
6.63225e-06
6.1747e-15
7.33038e-06
2.48898e-15
8.02851e-06
-9.64274e-16
8.72664e-06
-4.36455e-15
9.42478e-06
-8.89971e-15
1.01229e-05
1.38634e-14
1.0821e-05
1.0692e-14
1.15192e-05
6.2519e-15
1.22173e-05
-1.26448e-16
1.29154e-05
-3.43828e-15
1.36136e-05
-1.10403e-14
1.43117e-05
-1.77632e-14
1.50098e-05
1.76801e-14
1.5708e-05
9.95591e-15
1.64061e-05
3.33021e-15
1.71042e-05
-3.29691e-14
1.78024e-05
-1.04173e-14
1.85005e-05
3.00685e-14
1.91986e-05
-5.99922e-14
1.98967e-05
2.05949e-05
5.17002e-15
4.53785e-06
-7.45561e-15
5.23599e-06
-7.56269e-16
5.93412e-06
6.83992e-15
6.63225e-06
-9.97402e-15
7.33038e-06
-1.66409e-15
8.02851e-06
9.21894e-15
8.72664e-06
-1.3459e-14
9.42478e-06
2.3223e-14
1.01229e-05
1.04729e-14
1.0821e-05
-1.72714e-14
1.15192e-05
-3.02508e-15
1.22173e-05
1.13986e-14
1.29154e-05
-1.98165e-14
1.36136e-05
-4.67726e-15
1.43117e-05
5.03068e-14
1.50098e-05
-2.40436e-14
1.5708e-05
-6.65635e-15
1.64061e-05
1.42646e-14
1.71042e-05
1.65252e-15
1.78024e-05
-6.80613e-15
1.85005e-05
1.44433e-14
1.91986e-05
5.07601e-14
1.98967e-05
2.05949e-05
-6.19711e-15
4.53785e-06
2.88724e-17
5.23599e-06
1.15116e-14
5.93412e-06
-2.06256e-14
6.63225e-06
5.36693e-15
7.33038e-06
1.22184e-15
8.02851e-06
-4.72051e-17
8.72664e-06
1.23942e-14
9.42478e-06
-1.32258e-14
1.01229e-05
-1.88934e-14
1.0821e-05
-4.96223e-15
1.15192e-05
-7.15239e-15
1.22173e-05
-1.4886e-14
1.29154e-05
3.53399e-14
1.36136e-05
-1.01175e-18
1.43117e-05
-4.3137e-14
1.50098e-05
1.35628e-14
1.5708e-05
-2.82529e-14
1.64061e-05
2.45578e-15
1.71042e-05
-1.02395e-14
1.78024e-05
2.38028e-14
1.85005e-05
1.38736e-14
1.91986e-05
-4.5562e-14
1.98967e-05
2.05949e-05
-1.90645e-15
4.53785e-06
1.13095e-15
5.23599e-06
-2.16617e-14
5.93412e-06
9.62438e-15
6.63225e-06
1.51374e-14
7.33038e-06
-1.40646e-14
8.02851e-06
8.09315e-15
8.72664e-06
-2.69596e-14
9.42478e-06
-1.96562e-15
1.01229e-05
2.97183e-14
1.0821e-05
-1.17446e-14
1.15192e-05
1.98683e-14
1.22173e-05
-2.74448e-14
1.29154e-05
-2.06143e-14
1.36136e-05
1.60431e-14
1.43117e-05
-4.61208e-15
1.50098e-05
4.69398e-15
1.5708e-05
4.79693e-14
1.64061e-05
-1.37384e-14
1.71042e-05
3.23726e-14
1.78024e-05
-3.51865e-14
1.85005e-05
-2.49065e-14
1.91986e-05
7.19136e-14
1.98967e-05
2.05949e-05
1.90661e-15
4.53785e-06
-1.13052e-15
5.23599e-06
2.16618e-14
5.93412e-06
-9.62386e-15
6.63225e-06
-1.5137e-14
7.33038e-06
1.40655e-14
8.02851e-06
-8.09205e-15
8.72664e-06
2.69603e-14
9.42478e-06
1.96569e-15
1.01229e-05
-2.97164e-14
1.0821e-05
1.17456e-14
1.15192e-05
-1.98656e-14
1.22173e-05
2.74465e-14
1.29154e-05
2.06149e-14
1.36136e-05
-1.60406e-14
1.43117e-05
4.61562e-15
1.50098e-05
-4.69119e-15
1.5708e-05
-4.79675e-14
1.64061e-05
1.3743e-14
1.71042e-05
-3.23682e-14
1.78024e-05
3.51878e-14
1.85005e-05
2.49052e-14
1.91986e-05
-7.19177e-14
1.98967e-05
2.05949e-05
6.19734e-15
4.53785e-06
-2.85463e-17
5.23599e-06
-1.15116e-14
5.93412e-06
2.06263e-14
6.63225e-06
-5.36664e-15
7.33038e-06
-1.22113e-15
8.02851e-06
4.76676e-17
8.72664e-06
-1.23937e-14
9.42478e-06
1.32271e-14
1.01229e-05
1.88942e-14
1.0821e-05
4.9638e-15
1.15192e-05
7.15563e-15
1.22173e-05
1.48862e-14
1.29154e-05
-3.53384e-14
1.36136e-05
2.56431e-18
1.43117e-05
4.31377e-14
1.50098e-05
-1.35593e-14
1.5708e-05
2.82575e-14
1.64061e-05
-2.44985e-15
1.71042e-05
1.02421e-14
1.78024e-05
-2.38041e-14
1.85005e-05
-1.38731e-14
1.91986e-05
4.55664e-14
1.98967e-05
2.05949e-05
-5.16997e-15
4.53785e-06
7.45548e-15
5.23599e-06
7.56852e-16
5.93412e-06
-6.83931e-15
6.63225e-06
9.97414e-15
7.33038e-06
1.66478e-15
8.02851e-06
-9.21828e-15
8.72664e-06
1.34588e-14
9.42478e-06
-2.32196e-14
1.01229e-05
-1.04718e-14
1.0821e-05
1.7273e-14
1.15192e-05
3.02741e-15
1.22173e-05
-1.13968e-14
1.29154e-05
1.98177e-14
1.36136e-05
4.68104e-15
1.43117e-05
-5.03071e-14
1.50098e-05
2.40459e-14
1.5708e-05