/*--------------------------------*- C++ -*----------------------------------*\
  =========                 |
  \\      /  F ield         | OpenFOAM: The Open Source CFD Toolbox
   \\    /   O peration     | Website:  https://openfoam.org
    \\  /    A nd           | Version:  11
     \\/     M anipulation  |
\*---------------------------------------------------------------------------*/
FoamFile
{
    format      ascii;
    class       volScalarField;
    location    "1.66";
    object      epsilon;
}
// * * * * * * * * * * * * * * * * * * * * * * * * * * * * * * * * * * * * * //

dimensions      [0 2 -3 0 0 0 0];

internalField   nonuniform List<scalar> 
2880
(
2.37487
4.3817
8.01837
9.57958
8.749
6.22058
0.935936
2.63797
4.32213
5.39106
6.24496
8.86447
0.254725
2.14541
3.31904
4.31733
5.36867
6.62257
1.18883
1.92947
2.89152
3.87565
4.95207
5.86356
1.39875
1.8029
2.66526
3.6638
4.76982
5.5907
1.61586
1.72201
2.53277
3.56385
4.71114
5.51067
1.7907
1.66937
2.44943
3.5242
4.728
5.5166
1.92446
1.63247
2.39238
3.5197
4.80531
5.59128
2.01799
1.60202
2.34788
3.53723
4.92125
5.70211
2.07207
1.572
2.30648
3.56523
5.06123
5.8358
2.08693
1.53849
2.26107
3.59393
5.215
5.98727
2.06823
1.49957
2.20601
3.6146
5.37481
6.15497
2.02076
1.45562
2.13646
3.61829
5.53464
6.3376
1.9521
1.4058
2.04934
3.59491
5.68401
6.54069
1.86113
1.34719
1.94326
3.53366
5.81506
6.78035
1.74782
1.27732
1.81716
3.42376
5.91724
7.0668
1.61194
1.19319
1.67064
3.25549
5.97401
7.41168
1.44831
1.0891
1.50451
3.02105
5.96074
7.82939
1.22756
0.952172
1.32227
2.71547
5.84417
8.33928
0.270202
0.758548
1.13689
2.34873
5.57816
8.97267
0.253163
0.637758
0.96701
1.94372
5.10589
9.79422
0.231072
0.60584
0.856502
1.55953
4.37588
10.96
0.869871
0.777035
0.907441
1.32768
3.44547
13.0523
2.16529
1.832
1.80447
2.02643
2.85406
26.8648
7.27954
4.94025
4.12872
3.38676
2.64018
1.97821
1.44937
1.05345
0.766345
0.560466
0.411898
0.303497
0.224248
0.166657
0.125228
0.0958271
0.0752797
0.0611742
0.0517937
0.0459552
0.0428665
0.042086
0.0431034
0.0462678
6.12223
4.75778
3.9045
3.02623
2.23259
1.60399
1.14218
0.813366
0.580707
0.415264
0.297223
0.213475
0.154595
0.113575
0.0851897
0.0656109
0.0521493
0.043019
0.0370799
0.0335661
0.0319687
0.0319726
0.0331637
0.0359842
5.62178
4.6296
3.63205
2.66073
1.87812
1.30889
0.91056
0.633669
0.44075
0.306524
0.213908
0.150623
0.107723
0.0787491
0.0591557
0.0458634
0.0368581
0.0308538
0.0270409
0.0248953
0.0240877
0.0243343
0.0255331
0.027903
5.40402
4.46881
3.32284
2.32043
1.58415
1.0762
0.730061
0.494103
0.333819
0.226
0.154297
0.107039
0.0760012
0.0555523
0.0419694
0.0328629
0.0267333
0.0226585
0.0200822
0.0186634
0.0181935
0.0184771
0.0195158
0.0213952
5.28034
4.27121
3.00967
2.02276
1.34333
0.889235
0.586323
0.385019
0.252726
0.167009
0.112105
0.0770917
0.0546677
0.0401347
0.030561
0.0241518
0.019821
0.0169183
0.0150596
0.014018
0.0136577
0.0138673
0.0146618
0.0161086
5.20617
4.03564
2.71495
1.76903
1.14457
0.736716
0.471073
0.300035
0.191777
0.124285
0.0825018
0.0565376
0.0401832
0.0296713
0.0227576
0.0181114
0.0149417
0.0127792
0.0113494
0.0104955
0.0101278
0.0102014
0.010727
0.0117958
5.15226
3.78602
2.45154
1.55469
0.979288
0.611621
0.378918
0.234422
0.146468
0.0935649
0.0617205
0.0422975
0.0301828
0.0224178
0.017297
0.0138285
0.0114278
0.00974724
0.0085823
0.00781698
0.00738983
0.007289
0.00755419
0.00827771
5.1037
3.54247
2.22308
1.37409
0.841336
0.509124
0.305723
0.184216
0.113001
0.0714849
0.0470335
0.0323014
0.0231537
0.0172832
0.0133904
0.0107275
0.00885384
0.00750413
0.00651825
0.00580237
0.00530663
0.00502463
0.00502733
0.00542824
5.05108
3.3215
2.02895
1.22198
0.726082
0.425458
0.247999
0.146043
0.0883292
0.0555459
0.0365406
0.0251703
0.0181152
0.0135719
0.0105391
0.00844386
0.00694697
0.00584074
0.00499499
0.00432776
0.00379024
0.00336658
0.00308604
0.00309628
4.99311
3.13443
1.86628
1.09386
0.629935
0.357522
0.202754
0.117113
0.0700993
0.0439395
0.0289372
0.0199919
0.0144334
0.0108381
0.00842305
0.00674064
0.00552478
0.00461046
0.00389076
0.00329299
0.00276604
0.00227926
0.00179902
0.00117494
4.93727
2.98531
1.73128
0.986168
0.550046
0.302681
0.167453
0.0951915
0.056551
0.0353915
0.023342
0.0161642
0.0116932
0.00878947
0.00682925
0.00545617
0.00445772
0.00370165
0.0031017
0.0025979
0.00214494
0.00171038
0.00128478
0.000794326
4.90268
2.8661
1.61998
0.89603
0.484018
0.258648
0.139982
0.0785353
0.0463963
0.0290129
0.0191572
0.0132843
0.00961681
0.00722747
0.00560957
0.0044733
0.00364553
0.00301852
0.0025223
0.00210862
0.00174128
0.00139463
0.00105785
0.000690164
4.90187
2.77607
1.52994
0.821228
0.429812
0.223467
0.11863
0.0658203
0.038708
0.0241866
0.0159764
0.0110798
0.00801571
0.0060157
0.00465979
0.00370724
0.00301379
0.00248957
0.00207627
0.00173388
0.00143278
0.00115346
0.00089094
0.000621462
4.94801
2.71618
1.45958
0.759946
0.385676
0.195511
0.102022
0.0560558
0.0328219
0.0204837
0.013521
0.00936482
0.00676097
0.0050605
0.00390838
0.00310044
0.00251403
0.00207263
0.00172674
0.00144262
0.0011958
0.00097123
0.000766512
0.000566608
5.03886
2.68601
1.40764
0.710689
0.350222
0.173337
0.0890292
0.0484906
0.0282633
0.0176045
0.0115982
0.0080112
0.00576362
0.00429736
0.00330636
0.00261412
0.00211436
0.00174078
0.00145062
0.00121497
0.00101326
0.000833433
0.000673865
0.000524108
5.18316
2.68717
1.3735
0.672581
0.321919
0.155707
0.078805
0.0425728
0.024694
0.0153382
0.0100729
0.00692902
0.00496128
0.00368097
0.00281937
0.00222109
0.00179241
0.00147494
0.00123111
0.00103577
0.000871274
0.00072762
0.000603323
0.000490841
5.38985
2.72132
1.35709
0.644085
0.299433
0.14166
0.0707135
0.0379053
0.0218715
0.0135344
0.00884892
0.00605428
0.00430934
0.0031788
0.00242261
0.00190163
0.00153193
0.00126126
0.00105617
0.00089439
0.000760559
0.000646079
0.000549342
0.000464773
5.67235
2.79868
1.35778
0.623505
0.281611
0.130432
0.0642713
0.0341944
0.0196191
0.0120843
0.00785703
0.00534071
0.00377538
0.00276699
0.00209768
0.00164097
0.00132059
0.00108919
0.000916552
0.000782727
0.000674094
0.000583079
0.000507874
0.000444308
6.04641
2.91093
1.36891
0.609216
0.267465
0.121407
0.0591065
0.0312203
0.0178067
0.0109085
0.00704647
0.00475428
0.00333532
0.00242763
0.00183061
0.00142774
0.00114883
0.000950458
0.000805032
0.000694454
0.000606489
0.000534316
0.000475934
0.000428207
6.53497
3.06841
1.39173
0.599873
0.256104
0.114077
0.0549276
0.028816
0.0163373
0.00994779
0.0063796
0.00426961
0.00297107
0.00214709
0.00161064
0.00125307
0.00100913
0.000838563
0.000715941
0.000624669
0.000553623
0.000496554
0.0004513
0.000415515
7.16933
3.27557
1.42312
0.593479
0.246654
0.108004
0.051501
0.0268518
0.0151374
0.00915788
0.00582816
0.00386751
0.00266876
0.00191482
0.00142933
0.00110998
0.000895528
0.000748355
0.000644811
0.000569538
0.000512311
0.000467323
0.000432302
0.000405513
8.00066
3.5266
1.4561
0.587267
0.238161
0.102789
0.048635
0.0252282
0.0141485
0.00850513
0.00537072
0.0035333
0.0024177
0.00172253
0.00127999
0.000992888
0.000803277
0.000675739
0.000588105
0.000526041
0.000480067
0.00044473
0.000417684
0.000397662
9.11487
3.7502
1.47833
0.577612
0.229621
0.0980779
0.0461743
0.0238677
0.0133276
0.00796428
0.00499104
0.00325571
0.0022095
0.00156367
0.00115728
0.00089732
0.000728566
0.000617443
0.00054301
0.000491791
0.000454941
0.000427313
0.000406508
0.000391563
10.5345
3.91603
1.4708
0.560288
0.220136
0.0935976
0.0440042
0.0227131
0.0126431
0.00751657
0.00467687
0.00302608
0.00203764
0.00143304
0.00105691
0.000819658
0.000668324
0.000570844
0.000507288
0.000464894
0.000435378
0.000413908
0.000398044
0.000386918
3.23099
8.19324
11.2008
12.2707
10.7376
42.8264
1.15374
4.43022
6.09848
7.23418
9.64874
14.9742
1.71141
3.49811
4.62665
5.56265
6.91513
8.79072
2.36608
3.12456
3.97105
4.74357
5.60239
6.35129
2.96738
2.94011
3.60299
4.25381
4.84193
5.13918
3.5007
2.84767
3.37114
3.93075
4.35066
4.43941
3.9585
2.80214
3.2154
3.70329
4.0194
3.99952
4.33688
2.78175
3.10707
3.53958
3.7929
3.71166
4.63385
2.77443
3.03059
3.42302
3.63949
3.52544
4.84849
2.77312
2.97665
3.34304
3.54192
3.41461
4.98121
2.77346
2.93921
3.29265
3.49035
3.36507
5.03596
2.77361
2.91401
3.2669
3.47906
3.3694
5.03115
2.77377
2.89775
3.26206
3.50326
3.42342
4.95957
2.77
2.88764
3.27443
3.56306
3.53065
4.81542
2.75768
2.88144
3.30216
3.65884
3.69334
4.59387
2.73317
2.87731
3.34606
3.78958
3.91924
4.29192
2.69183
2.87473
3.40556
3.95848
4.22102
3.90803
2.63317
2.87624
3.48257
4.17136
4.62024
3.44274
2.56296
2.89027
3.58444
4.4392
5.16054
2.90081
2.4941
2.93858
3.72893
4.78434
5.93543
2.29449
2.45616
3.07217
3.96308
5.25593
7.17912
1.64812
2.53639
3.41405
4.41723
5.98143
9.62947
1.12967
3.07161
4.41252
5.57002
7.35086
16.0742
2.89454
6.63349
9.09849
10.2289
10.8245
51.2624
11.5001
3.83681
1.40181
0.532245
0.20928
0.0892157
0.0420585
0.0217278
0.0120739
0.00714868
0.0044192
0.00283786
0.00189701
0.00132649
0.000975412
0.000756966
0.000620047
0.000533813
0.000479137
0.00044384
0.000420131
0.000403511
0.000391662
0.000383402
7.84478
3.2737
1.27722
0.496111
0.197541
0.0849856
0.040321
0.0208935
0.0116084
0.00685178
0.00421166
0.00268625
0.00178378
0.00124083
0.000910063
0.000706906
0.000581723
0.000504632
0.000457127
0.000427485
0.000408327
0.000395455
0.000386719
0.000380677
6.03594
2.79832
1.15177
0.459148
0.186048
0.0810845
0.0388105
0.0202046
0.0112437
0.00662064
0.00405005
0.00256789
0.00169517
0.00117369
0.000858833
0.000667722
0.000551833
0.000481998
0.000440165
0.000414957
0.000399328
0.00038931
0.000382909
0.000378615
4.89438
2.43526
1.0419
0.425493
0.175689
0.0776927
0.0375619
0.0196663
0.0109744
0.00645206
0.00393175
0.00248055
0.00162924
0.00112339
0.000820273
0.000638154
0.000529279
0.000464956
0.000427435
0.000405598
0.000392652
0.00038479
0.000380068
0.000377142
4.12739
2.15958
0.951492
0.397078
0.167006
0.0749454
0.036608
0.019285
0.010799
0.00634458
0.00385534
0.00242285
0.00158472
0.00108878
0.000793336
0.000617276
0.000513242
0.000452786
0.000418313
0.000398869
0.000387851
0.000381568
0.000378092
0.000376171
3.60462
1.95421
0.880806
0.374639
0.160281
0.07293
0.0359748
0.0190674
0.0107182
0.00629804
0.00382031
0.00239408
0.00156082
0.00106907
0.000777282
0.000604397
0.00050309
0.000444923
0.000412312
0.000394372
0.000384616
0.000379414
0.000376817
0.000375562
3.24612
1.8056
0.828636
0.358307
0.155641
0.0717011
0.0356833
0.0190225
0.0107343
0.00631221
0.00382635
0.00239411
0.00155728
0.00106391
0.000771714
0.000599098
0.000498408
0.000440987
0.000409101
0.000391812
0.000382711
0.000378193
0.000376109
0.00037522
3.00339
1.70358
0.79348
0.347998
0.15315
0.0713009
0.0357456
0.0191433
0.0108387
0.0063813
0.0038687
0.00241909
0.00157146
0.00107161
0.000775633
0.000600836
0.000498931
0.000440819
0.000408561
0.00039113
0.000382111
0.000377724
0.0003758
0.000375101
2.84699
1.64116
0.774139
0.343635
0.152853
0.0717251
0.0361566
0.0194406
0.0110418
0.00651147
0.00395104
0.00247119
0.00160491
0.00109334
0.00078987
0.000610147
0.000504864
0.00044447
0.000410715
0.000392314
0.000382668
0.000377939
0.000375847
0.000375094
2.75932
1.61401
0.769942
0.345127
0.154719
0.0730234
0.0369653
0.0199409
0.0113642
0.00671951
0.00408691
0.00256102
0.00166469
0.00113324
0.000816417
0.00062779
0.000516568
0.000452171
0.000415706
0.00039548
0.000384501
0.000378906
0.000376273
0.000375191
2.73039
1.62
0.780899
0.352862
0.159119
0.0753948
0.0382734
0.0206992
0.0118293
0.00701453
0.00427875
0.00268753
0.00174891
0.00118986
0.000854876
0.000654042
0.000534465
0.000464281
0.0004238
0.000400794
0.00038787
0.00038076
0.000377141
0.000375416
2.75456
1.65896
0.80818
0.367595
0.16639
0.0789711
0.040124
0.0217261
0.0124403
0.00739708
0.0045263
0.00285136
0.00185914
0.001265
0.000906644
0.000689923
0.000559327
0.000481388
0.00043543
0.000408551
0.00039285
0.000383712
0.000378577
0.00037588
2.83261
1.73222
0.853912
0.390114
0.176826
0.083862
0.0425621
0.0230419
0.013207
0.00787377
0.0048351
0.00305685
0.00199855
0.00136101
0.000973518
0.000736823
0.000592236
0.000504337
0.000451245
0.000419243
0.00039981
0.00038791
0.000380778
0.000376668
2.96687
1.84374
0.920398
0.421717
0.190996
0.0903009
0.045685
0.0246904
0.0141509
0.00845643
0.00521249
0.00330908
0.00217089
0.00148073
0.00105773
0.000796506
0.000634598
0.00053425
0.000472131
0.000433549
0.000409256
0.000393722
0.000383935
0.000377886
3.16415
1.99962
1.01114
0.464205
0.209669
0.0985952
0.0496175
0.0267261
0.0152972
0.0091588
0.00566695
0.00361387
0.00238048
0.00162753
0.00116194
0.000871125
0.000688162
0.000572541
0.00049921
0.000452336
0.000421828
0.000401596
0.000388339
0.000379684
3.43574
2.20845
1.13109
0.51999
0.233853
0.10914
0.0545169
0.0292154
0.0166764
0.00999674
0.00620809
0.0039778
0.00263222
0.00180525
0.00128928
0.000963232
0.000755029
0.000620939
0.000533888
0.000476709
0.000438354
0.000412111
0.000394357
0.000382244
3.79897
2.48208
1.28679
0.592192
0.264839
0.122436
0.060578
0.0322394
0.0183242
0.0109885
0.00684666
0.0044081
0.00293149
0.00201816
0.00144324
0.00107575
0.00083766
0.000681505
0.000577866
0.000508034
0.000459877
0.000426003
0.000402453
0.000385785
4.28058
2.83679
1.48649
0.684686
0.304222
0.139097
0.0680379
0.0358949
0.0202831
0.012155
0.00759454
0.00491257
0.00328404
0.00227084
0.00162762
0.00121192
0.000938821
0.000756602
0.000633141
0.000547959
0.000487702
0.000444229
0.000413162
0.00039054
4.92069
3.29522
1.7402
0.802038
0.353886
0.159851
0.077175
0.0402953
0.0226041
0.0135202
0.00846474
0.00549948
0.00369585
0.00256804
0.00184644
0.00137521
0.00106155
0.000848899
0.000702044
0.000598477
0.000523442
0.000467924
0.000427096
0.000396724
5.78518
3.89194
2.05951
0.949174
0.415885
0.185504
0.088297
0.0455614
0.025355
0.0151117
0.00947142
0.00617747
0.00417307
0.00291465
0.00210385
0.0015693
0.00120916
0.000961368
0.000787206
0.000661847
0.000568923
0.000498434
0.000445152
0.000404656
7.01136
4.66844
2.45578
1.13049
0.492132
0.216861
0.101729
0.0518293
0.0285949
0.0169584
0.0106297
0.0069556
0.00472197
0.00331557
0.00240407
0.00179799
0.00138515
0.00109723
0.000891555
0.000740649
0.000626314
0.000537447
0.000468466
0.000414763
8.91865
5.66392
2.93609
1.34806
0.583793
0.254544
0.117764
0.0592312
0.032378
0.0190895
0.0119554
0.00784335
0.00534897
0.00377579
0.00275133
0.00206511
0.00159311
0.00125987
0.00101823
0.000837739
0.000698113
0.000586994
0.000498461
0.000427588
12.5402
7.00718
3.50671
1.59951
0.690345
0.298707
0.136579
0.0678715
0.0367579
0.0215349
0.0134654
0.00885075
0.00606075
0.00430027
0.0031498
0.00237443
0.00183657
0.00145268
0.0011705
0.000956208
0.000787137
0.000649465
0.000536866
0.000443813
21.6061
9.16315
4.17973
1.876
0.808546
0.348689
0.158145
0.077807
0.04178
0.0243245
0.0151775
0.00998873
0.00686446
0.00489421
0.00360361
0.0027296
0.00211897
0.00167901
0.00135168
0.0010993
0.000896476
0.00072759
0.000585734
0.000464273
4.82743
3.63872
2.47739
1.8131
1.5343
3.39576
1.45197
1.98433
1.67903
1.35709
1.53653
4.02806
2.07895
2.01807
1.63442
1.4442
1.81354
4.58109
2.56677
2.21361
1.71724
1.61515
2.12411
5.07064
2.93425
2.33033
1.82653
1.78739
2.41465
5.41884
3.23294
2.39689
1.9354
1.95037
2.67906
5.61035
3.48918
2.441
2.04465
2.11352
2.91638
5.67471
3.71292
2.47682
2.1561
2.28099
3.13164
5.65374
3.90778
2.51234
2.27176
2.45319
3.32738
5.58201
4.07559
2.55465
2.39258
2.62897
3.50552
5.48243
4.2179
2.60997
2.51898
2.80634
3.66762
5.36933
4.33665
2.68418
2.65155
2.98241
3.81073
5.25827
4.43474
2.7837
2.79161
3.15387
3.93629
5.163
4.47581
2.90077
2.93962
3.32013
4.05278
5.09656
4.45876
3.03212
3.09633
3.48608
4.17255
5.0791
4.36744
3.18033
3.266
3.65924
4.30909
5.12183
4.19887
3.35156
3.45619
3.84948
4.4775
5.23322
3.9474
3.55554
3.6788
4.06938
4.69672
5.44658
3.60467
3.80772
3.95316
4.33592
4.98818
5.78255
3.17394
4.1247
4.31392
4.67603
5.38069
6.25403
2.64017
4.56367
4.83352
5.14321
5.93287
6.91305
1.98805
5.28047
5.69779
5.87308
6.80373
8.00231
1.30708
6.77909
7.64061
7.33635
8.15007
11.2394
4.97302
10.9175
13.6983
12.0498
9.66405
32.3214
18.4324
10.4222
4.75042
2.14144
0.930215
0.402715
0.182171
0.0890363
0.04748
0.0274891
0.0171117
0.0112698
0.00776822
0.00556323
0.00411707
0.00313421
0.00244362
0.00194208
0.00156502
0.00127034
0.00102943
0.000824435
0.000647469
0.000489973
14.683
10.2195
5.07063
2.36014
1.04595
0.458484
0.208203
0.101523
0.053891
0.0310635
0.0192919
0.0127093
0.00878194
0.00631404
0.00469502
0.00359209
0.00281379
0.002245
0.00181366
0.00147261
0.00118943
0.000943368
0.00072485
0.000522103
12.3259
9.75787
5.1699
2.5196
1.14982
0.51413
0.235831
0.115244
0.0610581
0.0350914
0.0217484
0.0143268
0.00991841
0.00715522
0.0053435
0.00410775
0.00323318
0.00259105
0.00210078
0.00170941
0.00138001
0.00108805
0.000821072
0.000562052
10.759
9.029
5.12194
2.62356
1.24011
0.568686
0.264842
0.130234
0.0690536
0.0396316
0.0245209
0.0161483
0.0111946
0.0080983
0.00607071
0.00468734
0.00370662
0.00298428
0.00243005
0.00198434
0.00160496
0.00126252
0.000939869
0.000611445
9.66077
8.31575
5.01265
2.68404
1.31849
0.622112
0.295262
0.146612
0.0779881
0.0447626
0.0276611
0.0182071
0.0126329
0.00915889
0.00688816
0.00533982
0.00424146
0.00343093
0.00280693
0.00230236
0.00186911
0.00147176
0.00108596
0.000672303
8.8474
7.68404
4.87812
2.71518
1.38654
0.675144
0.327356
0.164577
0.0880144
0.0505861
0.0312345
0.0205459
0.0142618
0.0103574
0.00781169
0.00607844
0.00484944
0.00394181
0.00324147
0.00267279
0.00218106
0.00172401
0.00126699
0.000747837
8.20858
7.13763
4.71718
2.72181
1.44567
0.727899
0.361692
0.18449
0.0993479
0.0572319
0.0353226
0.0232163
0.0161158
0.0117189
0.00886121
0.00692098
0.00554805
0.0045351
0.00375293
0.00311577
0.00256131
0.00203964
0.00150226
0.000848615
7.68125
6.66628
4.53555
2.71427
1.49766
0.780591
0.39837
0.206711
0.11228
0.0648684
0.0400263
0.0262802
0.0182342
0.0132698
0.0100574
0.00788637
0.00635757
0.00523506
0.00437188
0.00367019
0.00305855
0.0024779
0.0018638
0.0010686
7.23016
6.26053
4.35326
2.69913
1.54443
0.833559
0.437694
0.231548
0.127081
0.0736953
0.0454687
0.02981
0.0206586
0.0150345
0.0114147
0.00898503
0.00728886
0.00605792
0.00512661
0.00438691
0.00376404
0.00321031
0.00273251
0.00245212
6.83724
5.91462
4.18725
2.68078
1.58777
0.887182
0.47995
0.259368
0.14409
0.0839556
0.0518021
0.0338935
0.0234362
0.0170344
0.012939
0.0102132
0.00833348
0.00699597
0.00601818
0.00528823
0.00473781
0.00433408
0.00409458
0.00408345
6.49482
5.62388
4.04182
2.66313
1.62922
0.941865
0.52546
0.290591
0.163713
0.0959571
0.0592266
0.0386495
0.0266316
0.0193005
0.0146402
0.0115675
0.00947926
0.00802902
0.00701343
0.00631245
0.00585587
0.00560711
0.00555799
0.00568078
6.20214
5.38684
3.92093
2.64974
1.67044
0.998133
0.574518
0.325677
0.18644
0.110095
0.0680136
0.0442478
0.0303453
0.0218893
0.0165485
0.0130629
0.0107319
0.00915526
0.00810025
0.00742922
0.00705802
0.00693263
0.00700809
0.00721559
5.96369
5.20479
3.82913
2.64328
1.71331
1.05652
0.627467
0.365145
0.212863
0.126882
0.0785356
0.0509342
0.0347313
0.0248948
0.0187198
0.0147311
0.0121059
0.0103749
0.00926437
0.00860991
0.00830596
0.00827711
0.00844259
0.00872203
5.78718
5.08234
3.77264
2.64637
1.75996
1.11825
0.684817
0.409595
0.243693
0.146973
0.0912993
0.0590606
0.0400197
0.0284628
0.0212444
0.016625
0.0136278
0.0116935
0.0104942
0.00983004
0.00957044
0.00961251
0.00986085
0.0102089
5.68716
5.03744
3.76228
2.67089
1.81473
1.1849
0.747457
0.459795
0.279786
0.171198
0.106985
0.0691234
0.0465485
0.0328145
0.0242632
0.0188312
0.0153464
0.0131327
0.0117916
0.0110787
0.0108345
0.0109246
0.0112494
0.0116705
5.69329
5.06466
3.80975
2.72636
1.8836
1.25946
0.816847
0.516781
0.322195
0.200604
0.126498
0.0818168
0.0548093
0.0382819
0.0279939
0.0214891
0.0173476
0.0147418
0.0131808
0.0123631
0.0120946
0.0122088
0.0125966
0.013097
5.78475
5.19992
3.93767
2.82904
1.97647
1.34711
0.895635
0.58218
0.372307
0.236524
0.151033
0.0981051
0.0655164
0.0453647
0.0327747
0.024823
0.0197782
0.016615
0.0147202
0.0137169
0.0133669
0.0134725
0.0138987
0.0144819
6.02106
5.47736
4.17997
3.00366
2.10936
1.45695
0.988675
0.658777
0.432135
0.280727
0.182182
0.119325
0.0797062
0.0548181
0.0391342
0.0291952
0.0228844
0.0189195
0.0165234
0.015216
0.014699
0.0147484
0.0151684
0.0158314
6.42322
5.90598
4.55943
3.27953
2.306
1.60437
1.10491
0.7517
0.504971
0.335759
0.222134
0.147347
0.0988891
0.0677913
0.0479085
0.0351978
0.0270812
0.0219467
0.0187971
0.0170086
0.016196
0.0161082
0.0164578
0.0171804
6.95443
6.45681
5.06197
3.67129
2.59158
1.81151
1.25964
0.870498
0.596797
0.405763
0.274142
0.184883
0.125301
0.0860521
0.0604355
0.0438121
0.0330767
0.0262069
0.0219125
0.0193705
0.0180671
0.0176844
0.0179114
0.0186114
7.55804
7.01428
5.59602
4.14219
2.96859
2.09701
1.47271
1.03068
0.718404
0.498167
0.343631
0.236194
0.162409
0.112396
0.0789047
0.0567025
0.0421097
0.0326146
0.0265473
0.0228132
0.020703
0.0197815
0.0197742
0.0203275
8.11679
7.34147
5.98036
4.57656
3.38326
2.44978
1.75422
1.24868
0.885331
0.625414
0.440095
0.308605
0.216019
0.15149
0.10704
0.076783
0.0564176
0.0428669
0.0339862
0.0283179
0.024876
0.0230317
0.0224569
0.0227837
8.34299
7.15116
5.98044
4.78533
3.71162
2.80282
2.079
1.52421
1.10881
0.80208
0.577517
0.41417
0.296134
0.211528
0.151495
0.109389
0.0802184
0.0602604
0.046796
0.0378878
0.0321829
0.0287398
0.0270128
0.0268676
7.49227
6.20243
5.49899
4.64577
3.80194
3.04156
2.37403
1.82032
1.37772
1.03261
0.768064
0.567769
0.417632
0.306143
0.224176
0.164595
0.121836
0.0915781
0.0704874
0.0560518
0.0463991
0.0401323
0.0363162
0.0348244
1.7054
1.93888
2.28977
2.33685
2.24371
2.7633
0.805116
0.828878
1.00583
1.09248
1.15442
1.40842
0.218831
0.61403
0.762627
0.842735
0.914982
1.0759
0.242739
0.556401
0.684502
0.760839
0.832416
0.94804
0.261253
0.546724
0.658446
0.731909
0.801301
0.890815
0.273625
0.560897
0.654375
0.725108
0.792289
0.866859
0.279989
0.591455
0.661686
0.72955
0.794825
0.860491
0.280829
0.628785
0.674753
0.740621
0.805159
0.865597
1.2001
0.661728
0.690084
0.755821
0.821395
0.880201
1.23959
0.684748
0.705942
0.774042
0.843043
0.903859
1.28254
0.702172
0.721734
0.794966
0.870418
0.937462
1.31511
0.714708
0.737359
0.818696
0.904294
0.982743
1.33088
0.722751
0.75292
0.84552
0.945676
1.04199
1.32744
0.726651
0.76857
0.87575
0.99563
1.11785
1.30508
0.726322
0.784439
0.909621
1.05516
1.21327
1.26686
0.721415
0.80064
0.947248
1.1251
1.3313
1.2206
0.711423
0.817384
0.988673
1.20614
1.47507
1.18657
0.695513
0.835277
1.03408
1.29896
1.64776
0.278289
0.672318
0.856031
1.08444
1.40494
1.85305
0.267664
0.665047
0.884117
1.14313
1.52798
2.09738
0.249951
0.678038
0.929546
1.22064
1.67948
2.398
0.226139
0.73323
1.02089
1.35076
1.8935
2.79095
0.836142
0.931534
1.27341
1.66875
2.30595
3.43568
1.81012
2.02188
2.61371
3.17042
3.8393
5.21644
3.97212
4.4098
4.40401
4.12891
3.6251
3.07044
2.54952
2.06961
1.65138
1.30001
1.01233
0.781245
0.598419
0.455668
0.345574
0.261617
0.198825
0.15288
0.119546
0.0956041
0.0786284
0.0668176
0.0589097
0.0539214
2.14584
2.81764
3.20005
3.27733
3.17073
2.90498
2.55888
2.21476
1.88147
1.57519
1.30344
1.06824
0.868379
0.700911
0.562814
0.451979
0.364241
0.295053
0.241308
0.200012
0.16898
0.145646
0.129896
0.115451
1.41889
1.86552
2.26017
2.4979
2.58323
2.55028
2.42981
2.24147
2.03798
1.83023
1.62943
1.44188
1.27055
1.11644
0.979512
0.85886
0.754504
0.665941
0.592054
0.530437
0.480689
0.436523
0.406361
0.365701
1.1306
1.39681
1.68596
1.92709
2.0908
2.17801
2.19303
2.16775
2.10388
2.01969
1.93045
1.8413
1.75576
1.67564
1.60143
1.53289
1.46965
1.41138
1.35747
1.30603
1.25659
1.20376
1.15829
1.09034
1.00759
1.17677
1.37785
1.57384
1.74119
1.87108
1.9626
2.02434
2.0607
2.08056
2.09189
2.10042
2.10771
2.11421
2.11972
2.12328
2.12351
2.11929
2.10953
2.09303
2.06558
2.02452
1.97572
1.92109
0.953522
1.07182
1.2158
1.36738
1.5117
1.64143
1.75429
1.85164
1.93549
2.0092
2.07533
2.13457
2.18784
2.23492
2.27491
2.30649
2.32812
2.33816
2.33676
2.32568
2.30098
2.25938
2.20898
2.1595
0.932655
1.02282
1.12982
1.24525
1.36163
1.47329
1.57854
1.67697
1.7687
1.85422
1.9336
2.00628
2.07134
2.12751
2.17337
2.20764
2.2293
2.23793
2.23441
2.22061
2.19349
2.1549
2.10892
2.06613
0.929364
1.00467
1.08821
1.17598
1.26492
1.35313
1.43894
1.52144
1.59971
1.67275
1.73956
1.79866
1.84851
1.88772
1.9153
1.93094
1.93488
1.929
1.91286
1.88809
1.85729
1.82173
1.78216
1.74556
0.940142
1.00604
1.07608
1.14708
1.21565
1.28144
1.3442
1.40366
1.45943
1.51038
1.5546
1.59067
1.61745
1.63431
1.6414
1.63989
1.63129
1.61835
1.6046
1.59249
1.58348
1.57773
1.5737
1.56603
0.964768
1.02776
1.08999
1.14993
1.20654
1.25901
1.30696
1.34992
1.38716
1.41815
1.4427
1.46047
1.47161
1.47689
1.47773
1.47608
1.47402
1.47366
1.47655
1.4828
1.49301
1.50771
1.52581
1.53866
1.00495
1.07222
1.13481
1.19193
1.24292
1.28769
1.32646
1.35945
1.38681
1.40855
1.42469
1.43572
1.44257
1.44662
1.44942
1.45273
1.45783
1.4658
1.47712
1.49122
1.50726
1.52562
1.54841
1.57898
1.06393
1.14409
1.21614
1.27978
1.3348
1.38174
1.42129
1.45416
1.48097
1.50244
1.51945
1.53317
1.54498
1.55634
1.56855
1.58256
1.59821
1.61439
1.62895
1.63738
1.63668
1.62454
1.59962
1.59435
1.14608
1.24968
1.34156
1.42199
1.49134
1.55085
1.60178
1.64533
1.68269
1.71504
1.74366
1.76981
1.79473
1.81909
1.84312
1.86637
1.88529
1.89902
1.90098
1.88219
1.83176
1.74387
1.64064
1.5684
1.25683
1.3966
1.5196
1.62733
1.72087
1.80232
1.87349
1.936
1.99122
2.04046
2.08462
2.12452
2.16053
2.19119
2.21692
2.2351
2.23172
2.20143
2.13551
2.03599
1.91672
1.78614
1.64876
1.50365
1.4027
1.59335
1.75852
1.90253
2.02745
2.13635
2.23143
2.31446
2.38636
2.44847
2.50006
2.54261
2.57399
2.586
2.56486
2.51472
2.4299
2.32262
2.20051
2.06001
1.90291
1.72463
1.5427
1.32893
1.59138
1.84856
2.06395
2.24856
2.40583
2.53989
2.6529
2.74684
2.82137
2.87899
2.91359
2.90784
2.86937
2.7966
2.6999
2.58613
2.45072
2.29207
2.10781
1.90277
1.68441
1.4582
1.24885
1.01252
1.83177
2.16939
2.43532
2.65551
2.83538
2.98024
3.09142
3.17189
3.21262
3.19277
3.13836
3.05025
2.94212
2.80924
2.64788
2.45655
2.23997
2.00327
1.75416
1.50143
1.25675
1.03101
0.835451
0.655787
2.13406
2.55879
2.86111
3.09715
3.27481
3.40153
3.46727
3.45083
3.38662
3.28716
3.1574
2.99255
2.79134
2.56019
2.30542
2.03417
1.75499
1.47766
1.21356
0.974633
0.769774
0.602396
0.471459
0.386866
2.50981
3.01111
3.314
3.52751
3.66092
3.69004
3.63071
3.52557
3.37163
3.16595
2.91849
2.63968
2.34041
2.03098
1.72139
1.42186
1.14423
0.900613
0.695879
0.534883
0.415938
0.334344
0.278826
0.252814
2.97276
3.50583
3.74885
3.88376
3.87672
3.78463
3.62171
3.38504
3.09031
2.75741
2.40504
2.0496
1.70493
1.38182
1.09163
0.844594
0.644973
0.493084
0.384254
0.307651
0.253533
0.217178
0.193292
0.187802
3.541
4.00176
4.10731
4.06085
3.92764
3.69496
3.37043
2.98547
2.57177
2.15729
1.76413
1.40719
1.09579
0.837842
0.635989
0.485388
0.377729
0.300404
0.245458
0.205771
0.17702
0.15631
0.142711
0.141419
4.25542
4.44256
4.30095
4.09287
3.79179
3.38379
2.91272
2.42534
1.96048
1.54475
1.19111
0.90384
0.682286
0.518906
0.401153
0.316349
0.254102
0.207356
0.171333
0.143488
0.122885
0.10895
0.102087
0.103438
5.17555
4.77446
4.34876
3.96705
3.48089
2.92669
2.36734
1.85479
1.41922
1.06925
0.800387
0.602068
0.458752
0.354566
0.277254
0.218633
0.173515
0.138734
0.112571
0.0941027
0.0822288
0.0757531
0.0744047
0.0772226
6.36848
4.92536
4.28898
3.71235
3.0724
2.43103
1.85813
1.38946
1.02853
0.760881
0.567026
0.426667
0.32337
0.246212
0.188286
0.144916
0.112889
0.0899081
0.0741566
0.0640478
0.0581863
0.0557253
0.0562577
0.0594922
)
;

boundaryField
{
    rotor
    {
        type            epsilonWallFunction;
        value           nonuniform List<scalar> 
144
(
2.37487
4.3817
8.01837
9.57958
8.749
6.22058
2.37487
0.935936
0.254725
1.18883
1.39875
1.61586
1.7907
1.92446
2.01799
2.07207
2.08693
2.06823
2.02076
1.9521
1.86113
1.74782
1.61194
1.44831
1.22756
0.270202
0.253163
0.231072
0.869871
2.16529
2.16529
1.832
1.80447
2.02643
2.85406
26.8648
3.23099
8.19324
11.2008
12.2707
10.7376
42.8264
3.23099
1.15374
1.71141
2.36608
2.96738
3.5007
3.9585
4.33688
4.63385
4.84849
4.98121
5.03596
5.03115
4.95957
4.81542
4.59387
4.29192
3.90803
3.44274
2.90081
2.29449
1.64812
1.12967
2.89454
2.89454
6.63349
9.09849
10.2289
10.8245
51.2624
4.82743
3.63872
2.47739
1.8131
1.5343
3.39576
4.82743
1.45197
2.07895
2.56677
2.93425
3.23294
3.48918
3.71292
3.90778
4.07559
4.2179
4.33665
4.43474
4.47581
4.45876
4.36744
4.19887
3.9474
3.60467
3.17394
2.64017
1.98805
1.30708
4.97302
4.97302
10.9175
13.6983
12.0498
9.66405
32.3214
1.7054
1.93888
2.28977
2.33685
2.24371
2.7633
1.7054
0.805116
0.218831
0.242739
0.261253
0.273625
0.279989
0.280829
1.2001
1.23959
1.28254
1.31511
1.33088
1.32744
1.30508
1.26686
1.2206
1.18657
0.278289
0.267664
0.249951
0.226139
0.836142
1.81012
1.81012
2.02188
2.61371
3.17042
3.8393
5.21644
)
;
    }
    freestream
    {
        type            inletOutlet;
        inletValue      uniform 0.000375;
        value           nonuniform List<scalar> 
96
(
0.0462678
0.0359842
0.027903
0.0213952
0.0161086
0.0117958
0.00827771
0.00542824
0.00309628
0.000375
0.000375
0.000375
0.000375
0.000375
0.000375
0.000375
0.000375
0.000375
0.000375
0.000375
0.000375
0.000375
0.000375
0.000375
0.000375
0.000375
0.000375
0.000375
0.000375
0.000375
0.000375
0.000375
0.000375
0.000375
0.000375
0.000375
0.000375
0.000375
0.000375
0.000375
0.000375
0.000375
0.000375
0.000375
0.000375
0.000375
0.000375
0.000375
0.000375
0.000375
0.000375
0.000375
0.000375
0.000375
0.000375
0.000375
0.00245212
0.00408345
0.00568078
0.00721559
0.00872203
0.0102089
0.0116705
0.013097
0.0144819
0.0158314
0.0171804
0.0186114
0.0203275
0.0227837
0.0268676
0.0348244
0.0539214
0.115451
0.365701
1.09034
1.92109
2.1595
2.06613
1.74556
1.56603
1.53866
1.57898
1.59435
1.5684
1.50365
1.32893
1.01252
0.655787
0.386866
0.252814
0.187802
0.141419
0.103438
0.0772226
0.0594922
)
;
    }
    frontAndBack
    {
        type            empty;
    }
}


// ************************************************************************* //
