/*--------------------------------*- C++ -*----------------------------------*\
  =========                 |
  \\      /  F ield         | OpenFOAM: The Open Source CFD Toolbox
   \\    /   O peration     | Website:  https://openfoam.org
    \\  /    A nd           | Version:  11
     \\/     M anipulation  |
\*---------------------------------------------------------------------------*/
FoamFile
{
    format      ascii;
    class       volScalarField;
    location    "1.66";
    object      k;
}
// * * * * * * * * * * * * * * * * * * * * * * * * * * * * * * * * * * * * * //

dimensions      [0 2 -2 0 0 0 0];

internalField   nonuniform List<scalar> 
2880
(
0.0050985
0.0182397
0.0548427
0.0975735
0.124326
0.120061
0.0180157
0.037931
0.0795778
0.123362
0.163445
0.196582
0.022574
0.0523628
0.0948884
0.139567
0.182911
0.217928
0.0249521
0.0620742
0.104419
0.149499
0.192487
0.224393
0.0279375
0.0688234
0.110791
0.155763
0.19747
0.225773
0.0307116
0.0735398
0.115095
0.159715
0.200136
0.225393
0.0328881
0.0767523
0.117862
0.162125
0.201637
0.22445
0.0345068
0.0787579
0.119385
0.163445
0.202579
0.223589
0.035616
0.0797257
0.119835
0.163932
0.203254
0.222988
0.0362492
0.0797519
0.119306
0.163734
0.203765
0.222652
0.0364219
0.0788912
0.117846
0.16284
0.204099
0.222536
0.0362031
0.0771742
0.115472
0.161229
0.204189
0.222632
0.0356463
0.0746094
0.11218
0.158797
0.203973
0.222835
0.0348331
0.0712303
0.107953
0.155369
0.203097
0.223129
0.0337411
0.067104
0.102765
0.150737
0.201385
0.223572
0.0323559
0.0623003
0.0965921
0.144658
0.198498
0.224096
0.0306548
0.056895
0.0894232
0.136872
0.19397
0.224537
0.0285414
0.0509793
0.0812816
0.127101
0.187165
0.224597
0.0255582
0.0447132
0.0722581
0.115073
0.177266
0.223892
0.0240063
0.0386651
0.0625661
0.100679
0.163159
0.221638
0.022491
0.0332263
0.0525588
0.0841046
0.143847
0.215205
0.0205274
0.0279508
0.0422941
0.0659509
0.118444
0.199378
0.0167505
0.021473
0.0305923
0.0461099
0.0845921
0.161146
0.00464675
0.00759823
0.0123163
0.0206233
0.0404486
0.118209
0.194571
0.207898
0.204081
0.190212
0.168886
0.14676
0.126427
0.108926
0.0943034
0.0822198
0.0722049
0.0638724
0.0569902
0.0513886
0.0469293
0.0435204
0.0411108
0.0396792
0.0392154
0.0395
0.0404829
0.0422037
0.0444975
0.0472503
0.216955
0.212506
0.199882
0.177997
0.153978
0.131711
0.112615
0.0966944
0.0834878
0.0724996
0.0633665
0.055856
0.0497669
0.0449225
0.0411729
0.038399
0.03652
0.0354894
0.0352766
0.0356623
0.0367015
0.0383256
0.0404394
0.0429125
0.224219
0.213732
0.192296
0.166012
0.141024
0.119563
0.101695
0.086851
0.0744938
0.0642523
0.0558692
0.0491109
0.0437565
0.0395968
0.0364469
0.0341619
0.0326442
0.0318359
0.0317011
0.0320766
0.0330207
0.0344572
0.0363312
0.0385221
0.225758
0.210954
0.183163
0.154835
0.130168
0.109647
0.0926102
0.0784298
0.0667023
0.0571444
0.0494898
0.0434644
0.038793
0.0352223
0.0325428
0.0305999
0.0292927
0.0285645
0.0283849
0.0286595
0.0294035
0.0305873
0.0321838
0.0340975
0.224562
0.205035
0.173769
0.145086
0.121113
0.101247
0.0847074
0.071027
0.0599045
0.0510468
0.0441232
0.0387844
0.0347023
0.0315995
0.0292619
0.0275375
0.0263293
0.0255841
0.0252778
0.025378
0.025852
0.0267321
0.0280219
0.029664
0.221818
0.197826
0.165146
0.136845
0.113403
0.0938786
0.0776769
0.0644859
0.0540089
0.0458693
0.0396385
0.0349007
0.031299
0.0285528
0.0264552
0.024862
0.0236805
0.0228591
0.0223778
0.0222344
0.0224069
0.0229268
0.0238761
0.0252449
0.218524
0.190683
0.157698
0.129855
0.106653
0.0872794
0.071392
0.0587407
0.0489439
0.0415009
0.0358918
0.0316581
0.0284365
0.0259565
0.0240246
0.0225057
0.0213104
0.0203853
0.0197076
0.0192779
0.0191111
0.0192376
0.0197797
0.0208526
0.215177
0.184276
0.151474
0.123865
0.100641
0.0813361
0.0658016
0.053741
0.044626
0.037826
0.0327519
0.0289282
0.0260015
0.0237191
0.0219026
0.0204264
0.0192029
0.018174
0.0173075
0.0165956
0.0160541
0.0157382
0.0158009
0.0164708
0.212049
0.178903
0.146362
0.118678
0.0952459
0.0760002
0.0608725
0.0494283
0.0409631
0.0347317
0.0301039
0.0266075
0.0239084
0.0217745
0.0200429
0.0185971
0.0173519
0.0162438
0.0152282
0.0142789
0.0133923
0.0126017
0.0120013
0.0118791
0.209312
0.174674
0.142223
0.114162
0.0904093
0.0712461
0.0565671
0.0457334
0.037861
0.0321165
0.0278532
0.0246154
0.022093
0.0200743
0.0184113
0.016997
0.0157501
0.0146059
0.0135105
0.012417
0.0112844
0.0100743
0.00863765
0.00641063
0.207101
0.17161
0.138942
0.110241
0.0861013
0.0670506
0.0528384
0.042582
0.0352318
0.029894
0.0259239
0.0228897
0.0205057
0.0185798
0.0169777
0.0156021
0.0143784
0.0132461
0.012153
0.0110483
0.00987801
0.00859143
0.00717131
0.00535864
0.205558
0.169689
0.136439
0.106874
0.0823045
0.0633857
0.0496326
0.0399009
0.0329981
0.0279932
0.0242558
0.0213807
0.0191057
0.017256
0.0157096
0.014378
0.0131937
0.012103
0.0110608
0.0100246
0.00894955
0.00779466
0.00654457
0.00507126
0.204898
0.168793
0.134659
0.104039
0.0790026
0.0602165
0.0468932
0.0376232
0.0310945
0.0263571
0.0228014
0.0200491
0.0178593
0.0160718
0.0145749
0.0132871
0.0121465
0.0111043
0.01012
0.00915677
0.00817624
0.00714788
0.00607269
0.0048753
0.205253
0.168872
0.133583
0.101728
0.0761762
0.0575035
0.0445654
0.0356904
0.0294676
0.0249405
0.0215238
0.0188644
0.0167401
0.0150028
0.0135488
0.0123021
0.0112048
0.0102117
0.00928593
0.0083946
0.00750494
0.0065947
0.00567352
0.00469556
0.206636
0.170038
0.133197
0.0999354
0.0738006
0.0552054
0.0426004
0.0340539
0.0280745
0.0237082
0.0203945
0.0178035
0.0157285
0.0140315
0.0126147
0.0114062
0.0103513
0.00940702
0.00853933
0.00771854
0.00691637
0.00611646
0.00533165
0.00453308
0.20909
0.172262
0.133408
0.0986553
0.0718483
0.0532846
0.0409556
0.0326732
0.0268809
0.0226327
0.0193919
0.016849
0.0148106
0.0131459
0.011762
0.0105896
0.00957608
0.00868045
0.00787043
0.00711873
0.00640043
0.00570282
0.00503876
0.00439007
0.212669
0.175664
0.134523
0.0978999
0.0702913
0.0517058
0.0395932
0.0315142
0.0258587
0.0216918
0.018499
0.0159881
0.013976
0.0123378
0.0109835
0.00984573
0.0088731
0.00802581
0.0072728
0.00658836
0.00594983
0.00534641
0.00478911
0.0042664
0.217415
0.180329
0.136427
0.0976182
0.0690932
0.050434
0.0384793
0.0305474
0.0249848
0.0208683
0.0177029
0.0152109
0.0132173
0.0116011
0.0102741
0.00917001
0.00823789
0.00743856
0.00674163
0.00612227
0.00555906
0.00504181
0.00457846
0.00416135
0.223364
0.186383
0.139021
0.0977186
0.0682142
0.0494348
0.0375824
0.0297476
0.0242399
0.0201479
0.0169934
0.0145102
0.012529
0.0109315
0.00963014
0.00855886
0.00766678
0.0069148
0.00627268
0.00571584
0.00522329
0.00478426
0.00440292
0.00407349
0.230559
0.193986
0.142306
0.0980985
0.0676108
0.0486726
0.0368728
0.029092
0.0236076
0.0195192
0.0163624
0.01388
0.0119068
0.0103255
0.0090485
0.00800925
0.00715653
0.00645095
0.00586201
0.00536482
0.00493796
0.0045692
0.00425857
0.00400099
0.23958
0.203311
0.14604
0.098728
0.0672388
0.0481088
0.0363209
0.0285596
0.0230736
0.0189725
0.0158033
0.0133159
0.0113474
0.00978038
0.0085266
0.00751847
0.00670412
0.00604361
0.00550581
0.00506492
0.00469845
0.00439198
0.00414146
0.00394189
0.251246
0.214457
0.14967
0.0994846
0.0670268
0.0476974
0.0358966
0.0281305
0.0226252
0.0184996
0.015311
0.0128143
0.010848
0.00929388
0.0080621
0.00708393
0.00630659
0.00568937
0.00520014
0.00481171
0.00449995
0.0042479
0.00404775
0.00389435
0.266968
0.227024
0.152827
0.100182
0.066878
0.0473862
0.0355693
0.0277863
0.0222512
0.0180937
0.0148809
0.0123723
0.0104065
0.00886386
0.00765276
0.00670306
0.00596096
0.00538476
0.00494095
0.00460056
0.00433748
0.00413229
0.00397389
0.00385674
0.288015
0.236854
0.155259
0.100578
0.0666799
0.0471225
0.0353111
0.0275115
0.0219426
0.0177496
0.0145101
0.0119878
0.0100211
0.00848841
0.00729635
0.00637323
0.00566414
0.00512617
0.00472407
0.0044267
0.004206
0.00404052
0.00391657
0.00382767
0.00692977
0.0339825
0.0764434
0.124711
0.153021
0.162469
0.0222032
0.0664909
0.109114
0.15541
0.203668
0.274832
0.0318708
0.0871246
0.131125
0.177384
0.227632
0.285988
0.0395525
0.101032
0.146283
0.192287
0.239372
0.282658
0.0459972
0.111373
0.157477
0.202659
0.245463
0.276759
0.051355
0.119373
0.166003
0.210026
0.248577
0.271372
0.0557397
0.125622
0.172568
0.215375
0.25015
0.267019
0.0592371
0.130442
0.177598
0.219322
0.251017
0.263839
0.0619113
0.134017
0.18137
0.22225
0.251715
0.261896
0.0638086
0.13646
0.184066
0.22443
0.25255
0.261213
0.0649676
0.137837
0.185801
0.226037
0.253696
0.261811
0.0654425
0.138172
0.186632
0.227163
0.255234
0.263705
0.0654007
0.137455
0.186569
0.227824
0.257163
0.266924
0.0647796
0.135693
0.18557
0.227959
0.259375
0.27144
0.0635195
0.132874
0.183555
0.227454
0.261694
0.277213
0.0615576
0.128968
0.180399
0.226092
0.263864
0.284144
0.0588317
0.12393
0.175944
0.223561
0.265569
0.292003
0.055271
0.11771
0.17
0.219454
0.266259
0.300486
0.050794
0.110237
0.162343
0.213242
0.265122
0.3091
0.0453149
0.101392
0.152663
0.204215
0.260857
0.317022
0.0387589
0.0909086
0.140433
0.191356
0.251527
0.32279
0.0310881
0.0780643
0.124543
0.173059
0.233922
0.322599
0.0217479
0.0603645
0.101982
0.146279
0.202525
0.304047
0.00621099
0.027499
0.0620401
0.103904
0.153722
0.183421
0.310625
0.241598
0.156106
0.100352
0.0663316
0.0468649
0.0351015
0.0272948
0.0216933
0.017464
0.0141967
0.0116594
0.00969032
0.00816586
0.00699068
0.00609171
0.00541286
0.00490978
0.00454515
0.00428538
0.00410051
0.00396783
0.00387251
0.00380542
0.319458
0.237584
0.154428
0.0992892
0.0657973
0.0465978
0.034931
0.0271312
0.0215007
0.0172357
0.0139402
0.0113869
0.00941367
0.00789502
0.00673388
0.0058559
0.00520384
0.00473175
0.00439994
0.00417229
0.00401709
0.00391073
0.0038381
0.00378808
0.306333
0.228644
0.150859
0.0976618
0.0651372
0.0463361
0.0348036
0.0270228
0.0213661
0.0170658
0.0137418
0.0111712
0.00919141
0.00767547
0.00652478
0.00566386
0.00503438
0.00458869
0.00428464
0.00408363
0.00395242
0.00386675
0.00381149
0.00377486
0.290664
0.219041
0.146681
0.0958451
0.0644635
0.0461156
0.0347329
0.0269764
0.0212938
0.0169578
0.0136041
0.011014
0.00902454
0.00750749
0.00636293
0.00551441
0.00490251
0.00447791
0.00419607
0.00401618
0.00390377
0.00383402
0.00379155
0.00376533
0.276501
0.210241
0.142651
0.094139
0.0638837
0.0459763
0.0347362
0.0269982
0.0212896
0.0169158
0.01353
0.0109174
0.00891438
0.00739165
0.00624819
0.00540665
0.00480661
0.00439713
0.00413153
0.0039671
0.00386846
0.00381048
0.0037775
0.00375895
0.264945
0.202898
0.139205
0.0927432
0.0634801
0.0459515
0.0348159
0.0270857
0.0213486
0.0169399
0.0135223
0.0108837
0.00886223
0.00732853
0.00618047
0.0053398
0.00474519
0.00434433
0.00408873
0.00393417
0.0038446
0.00379462
0.0037682
0.0037549
0.256115
0.197225
0.136574
0.0917834
0.0633114
0.0460566
0.0349862
0.0272478
0.0214751
0.0170269
0.0135755
0.0109103
0.00886845
0.00731891
0.00616003
0.00531345
0.00471723
0.00431803
0.00406603
0.00391579
0.00383067
0.00378532
0.00376302
0.00375262
0.249829
0.193263
0.134884
0.0913389
0.0634129
0.0463135
0.035261
0.0274937
0.0216765
0.0171833
0.0136926
0.0109949
0.00892685
0.00735717
0.00618309
0.00532545
0.00472167
0.00431757
0.00406271
0.00391127
0.00382609
0.00378186
0.0037608
0.00375178
0.245874
0.190999
0.134204
0.0914577
0.0638042
0.046747
0.0356672
0.0278516
0.0219788
0.0174324
0.0138951
0.0111574
0.00905521
0.00745676
0.0062586
0.00538089
0.00476055
0.00434348
0.00407901
0.0039208
0.00383114
0.00378402
0.00376144
0.0037518
0.244089
0.190423
0.13457
0.0921636
0.0645478
0.0474126
0.0362367
0.028336
0.0223894
0.0177792
0.0141863
0.0113994
0.00925361
0.00761698
0.00638567
0.00547934
0.0048345
0.0043968
0.00411574
0.00394493
0.00384616
0.00379205
0.003765
0.00375261
0.244364
0.191543
0.136074
0.093576
0.0657017
0.048322
0.036969
0.0289435
0.0229031
0.0182167
0.0145586
0.0117143
0.00951777
0.00783608
0.00656462
0.00562233
0.00494526
0.00447926
0.00417446
0.00398486
0.00387185
0.00380708
0.00377199
0.00375439
0.24666
0.194397
0.138756
0.0957002
0.0672652
0.0494758
0.0378631
0.0296729
0.0235188
0.0187449
0.0150134
0.0121047
0.00985038
0.00811662
0.0067979
0.00581229
0.00509538
0.00459337
0.00425744
0.00404242
0.00390953
0.00382958
0.00378327
0.00375787
0.250974
0.199049
0.142695
0.0985957
0.0692758
0.0508963
0.038932
0.0305313
0.0242407
0.0193666
0.0155531
0.0125726
0.0102539
0.0084613
0.00708842
0.00605235
0.00528818
0.00474255
0.00436797
0.00412051
0.00396155
0.0038613
0.00379983
0.00376347
0.257344
0.205588
0.147989
0.102339
0.0717803
0.0526085
0.0401883
0.0315248
0.0250719
0.0200839
0.0161793
0.0131202
0.0107305
0.00887279
0.00743925
0.00634598
0.00552753
0.00493091
0.00451011
0.00422278
0.00403095
0.00390451
0.00382314
0.00377192
0.265833
0.214123
0.154752
0.107017
0.0748328
0.0546405
0.041645
0.032659
0.0260145
0.0208974
0.0168928
0.0137483
0.0112819
0.00935345
0.00785342
0.00669682
0.00581758
0.00516302
0.00468854
0.00435365
0.00412144
0.00396204
0.00385509
0.00378418
0.276515
0.224777
0.163103
0.112725
0.0784921
0.0570224
0.0433154
0.0339386
0.0270694
0.0218067
0.0176929
0.014457
0.0119091
0.00990506
0.00833357
0.00710833
0.00616255
0.0054437
0.00490843
0.00451814
0.00423744
0.00403734
0.00389799
0.00380136
0.289449
0.23767
0.173158
0.119557
0.0828179
0.0597851
0.0452124
0.0353672
0.028236
0.0228098
0.0185777
0.0152451
0.0126117
0.0105285
0.00888163
0.00758346
0.00656633
0.00577765
0.00517504
0.00472168
0.00438396
0.00413445
0.00395459
0.00382478
0.304654
0.252887
0.184996
0.127588
0.087864
0.062957
0.0473476
0.0369474
0.0295124
0.0239031
0.0195435
0.0161097
0.0133879
0.0112231
0.00949837
0.00812422
0.00703206
0.00616902
0.00549337
0.0049698
0.00456651
0.00425813
0.00402785
0.00385576
0.32205
0.27045
0.198622
0.136849
0.0936647
0.0665593
0.0497289
0.0386795
0.0308944
0.0250809
0.0205848
0.017046
0.0142343
0.0119869
0.0101831
0.00873134
0.00756179
0.00662115
0.00586795
0.00526793
0.00479082
0.00441326
0.0041208
0.00389542
0.341285
0.290287
0.21389
0.147283
0.100214
0.0705972
0.0523579
0.0405612
0.0323763
0.0263358
0.0216942
0.0180476
0.0151457
0.0128162
0.0109338
0.00940424
0.00815649
0.00713639
0.00630238
0.00562067
0.00506194
0.00460466
0.00423744
0.00394538
0.361781
0.311743
0.230368
0.158678
0.107436
0.075047
0.0552243
0.0425844
0.0339498
0.027659
0.022863
0.0191065
0.0161153
0.0137057
0.0117466
0.0101409
0.00881577
0.0077159
0.00679918
0.00603172
0.00538444
0.00483719
0.00438196
0.00400742
0.381593
0.333186
0.247147
0.170581
0.115141
0.0798384
0.0583001
0.044733
0.0356033
0.0290404
0.0240818
0.0202141
0.0171354
0.0146489
0.0126166
0.010938
0.0095377
0.00835925
0.00735939
0.00650349
0.00576199
0.00511535
0.00455868
0.00408352
0.394087
0.352148
0.262796
0.182217
0.122979
0.0848348
0.0615318
0.0469823
0.0373218
0.0304687
0.0253403
0.0213607
0.0181974
0.0156382
0.0135374
0.0117902
0.0103186
0.00906431
0.00798242
0.00703698
0.00619714
0.00544291
0.0047716
0.00417557
0.364307
0.360603
0.27541
0.192502
0.130446
0.0898282
0.0648386
0.0492978
0.0390874
0.0319313
0.0266281
0.0225369
0.0192922
0.0166653
0.0145016
0.0126913
0.0111534
0.00982728
0.00866602
0.00763165
0.00669112
0.00582265
0.0050241
0.00428526
0.0103662
0.0151168
0.0169317
0.0184488
0.0217251
0.0637397
0.0279698
0.0372425
0.0384411
0.0392414
0.047397
0.0994937
0.0363157
0.0468258
0.0507634
0.0532632
0.0672792
0.127499
0.0417936
0.0547359
0.0612493
0.065707
0.0843598
0.14875
0.0456913
0.0622433
0.0709805
0.077345
0.099306
0.164184
0.0487404
0.0694135
0.0801451
0.0883616
0.112423
0.17498
0.0512817
0.0762868
0.0887969
0.0987892
0.123979
0.182228
0.0534504
0.082817
0.0969598
0.108645
0.134234
0.186896
0.055304
0.0889304
0.104624
0.117944
0.143247
0.189857
0.0568761
0.0945681
0.111763
0.126574
0.151147
0.191915
0.0581931
0.0996663
0.118346
0.134516
0.158172
0.193628
0.0592814
0.104147
0.124352
0.141818
0.164561
0.195339
0.0601736
0.107909
0.129763
0.148548
0.170559
0.197414
0.0605461
0.111005
0.134557
0.15477
0.176417
0.200304
0.0603934
0.113428
0.138688
0.160522
0.182372
0.204498
0.0595669
0.11508
0.142071
0.165785
0.188564
0.21036
0.0580246
0.115714
0.144562
0.170428
0.194948
0.21802
0.0556837
0.115243
0.14588
0.174159
0.201181
0.22712
0.0524104
0.113156
0.145803
0.176421
0.206529
0.236666
0.0481439
0.108819
0.143756
0.176517
0.209751
0.244827
0.0425823
0.101331
0.138977
0.173225
0.208893
0.248645
0.0352448
0.0892588
0.130241
0.164756
0.200795
0.243856
0.0251756
0.0697791
0.115269
0.148331
0.179745
0.221431
0.0106745
0.0453284
0.093508
0.122543
0.137047
0.134887
0.313789
0.35393
0.280964
0.200138
0.136972
0.094579
0.0681256
0.0516408
0.0408816
0.0334169
0.0279358
0.0237338
0.0204115
0.0177219
0.0155012
0.0136339
0.0120357
0.0106429
0.00940642
0.00828545
0.0072438
0.00625625
0.00531879
0.0044138
0.277747
0.337444
0.279622
0.204587
0.142191
0.0988957
0.0713084
0.0539763
0.0426888
0.0349162
0.0292561
0.0249444
0.0215478
0.0188007
0.0165288
0.0146108
0.0129585
0.0115051
0.0101987
0.00899504
0.00785383
0.0067444
0.00565754
0.00456185
0.256113
0.316659
0.275275
0.206165
0.146036
0.102686
0.0743334
0.0562808
0.0444989
0.0364237
0.0305845
0.026164
0.0226959
0.0198957
0.0175782
0.0156156
0.0139155
0.012408
0.0110375
0.00975644
0.00851904
0.00728707
0.00604169
0.00472951
0.242994
0.297549
0.268273
0.205557
0.148672
0.105949
0.0771823
0.0585446
0.0463084
0.0379381
0.0319195
0.0273905
0.0238532
0.0210039
0.0186459
0.0166446
0.0149029
0.0133475
0.0119193
0.0105666
0.00923762
0.00788441
0.00647286
0.00491657
0.235198
0.280831
0.25897
0.203732
0.150388
0.108753
0.0798631
0.060769
0.0481191
0.0394612
0.0332623
0.0286243
0.0250196
0.022125
0.019732
0.0176983
0.0159218
0.0143251
0.0128456
0.0114271
0.0100116
0.00853951
0.00695509
0.0051234
0.23037
0.266394
0.249379
0.201295
0.151442
0.111189
0.0824009
0.0629607
0.0499351
0.0409961
0.034615
0.0298667
0.0261964
0.0232614
0.0208406
0.0187833
0.0169814
0.0153528
0.0138304
0.012353
0.0108561
0.00926756
0.0075027
0.00535457
0.227036
0.253958
0.239997
0.198367
0.152
0.113337
0.084826
0.0651316
0.0517627
0.0425459
0.035979
0.0311183
0.0273843
0.0244156
0.0219776
0.0199107
0.0180999
0.0164575
0.0149102
0.0133903
0.0118249
0.0101273
0.00817461
0.00564514
0.224371
0.243254
0.231136
0.194974
0.15206
0.115226
0.0871597
0.0672972
0.0536086
0.044113
0.0373537
0.0323761
0.0285799
0.025585
0.0231442
0.0210888
0.0192974
0.0176767
0.0161478
0.0146359
0.0130596
0.0113179
0.00924701
0.00635861
0.221989
0.234073
0.222977
0.191152
0.151825
0.116904
0.0894241
0.0694681
0.0554799
0.0457001
0.038736
0.0336324
0.0297713
0.0267558
0.0243263
0.022307
0.0205728
0.0190294
0.0176006
0.0162204
0.0148331
0.0134208
0.0121032
0.0112864
0.219812
0.226268
0.215649
0.187229
0.151384
0.11841
0.0916353
0.0716563
0.0573859
0.0473104
0.040122
0.0348757
0.03094
0.0279024
0.0254924
0.0235288
0.0218872
0.020481
0.0192503
0.0181575
0.0171885
0.016372
0.0158307
0.015765
0.217949
0.219828
0.209273
0.183464
0.150812
0.119776
0.0938086
0.073875
0.0593394
0.0489519
0.0415119
0.0360976
0.0320688
0.0289994
0.0266086
0.0247108
0.0231838
0.0219491
0.020961
0.0201987
0.0196606
0.0193647
0.0193549
0.0196148
0.216597
0.215117
0.203839
0.179954
0.1502
0.121046
0.0959553
0.0761381
0.0613578
0.0506402
0.042915
0.0372988
0.0331504
0.0300321
0.0276532
0.0258238
0.0244218
0.0233724
0.0226332
0.0221821
0.0220051
0.0220837
0.022393
0.0228337
0.216337
0.21225
0.199449
0.176999
0.149677
0.122265
0.0980924
0.0784627
0.0634654
0.0524014
0.0443529
0.0384934
0.03419
0.0309969
0.0286139
0.0268446
0.0255634
0.0246924
0.0241834
0.0240031
0.024109
0.0244596
0.0249959
0.0255555
0.217246
0.211729
0.196591
0.174793
0.149371
0.123521
0.100251
0.0808728
0.0656941
0.054273
0.0458613
0.03971
0.0352066
0.0319022
0.0294869
0.0277554
0.0265742
0.0258568
0.0255443
0.0255839
0.025909
0.0264819
0.0271911
0.0278533
0.219846
0.212933
0.19603
0.17385
0.149398
0.124896
0.102488
0.0834049
0.0680844
0.0563036
0.0474905
0.040993
0.0362345
0.0327695
0.0302799
0.0285489
0.0274316
0.0268295
0.0266711
0.0268666
0.0273807
0.0281272
0.0289835
0.0297449
0.225216
0.217021
0.197331
0.174169
0.150163
0.126582
0.1049
0.0861154
0.0706881
0.0585534
0.0493057
0.0424044
0.0373257
0.0336375
0.0310165
0.0292336
0.0281299
0.0275926
0.0275372
0.0278374
0.0284954
0.0293807
0.0303654
0.0312262
0.234063
0.225295
0.202184
0.176855
0.152205
0.128901
0.107663
0.0891054
0.0735802
0.0610983
0.0513886
0.0440256
0.0385535
0.0345661
0.0317412
0.0298389
0.0286852
0.0281518
0.0281401
0.0284962
0.029247
0.0302352
0.0313282
0.0322878
0.246026
0.237814
0.21196
0.182967
0.156328
0.132383
0.111095
0.0925579
0.0768802
0.0640398
0.0538417
0.0459607
0.0400164
0.0356421
0.0325257
0.030421
0.0291405
0.0285402
0.0285084
0.0288618
0.0296452
0.0306949
0.0318699
0.0329232
0.259838
0.253895
0.226499
0.193338
0.163527
0.137822
0.115732
0.0968067
0.0807982
0.0675311
0.0568016
0.0483436
0.041845
0.0369865
0.0334769
0.031071
0.0295715
0.0288207
0.0286942
0.0289851
0.0297226
0.0307808
0.0320004
0.033136
0.273007
0.270945
0.243967
0.207666
0.174424
0.146095
0.122339
0.10241
0.0857104
0.0718329
0.0604728
0.0513579
0.0442143
0.0387654
0.0347477
0.0319254
0.0300977
0.0290965
0.0287848
0.0289588
0.0295712
0.0305737
0.0317854
0.0329741
0.281939
0.284217
0.259902
0.223305
0.188131
0.157411
0.13157
0.110062
0.0921932
0.0773821
0.0651902
0.055281
0.0473732
0.041211
0.0365549
0.0331835
0.0308984
0.0295259
0.0289154
0.028909
0.0292883
0.0301408
0.0312756
0.0324852
0.282047
0.287234
0.267922
0.235306
0.201484
0.170289
0.143115
0.12008
0.100794
0.0847408
0.0714512
0.0605394
0.0516959
0.0446625
0.0392116
0.0351343
0.0322383
0.0303482
0.0293072
0.0289783
0.0291163
0.029664
0.0306266
0.0317876
0.266931
0.275173
0.26321
0.237994
0.209705
0.181321
0.15497
0.13159
0.111385
0.0941952
0.0797223
0.0676506
0.0576939
0.0496057
0.0431728
0.0382017
0.03451
0.031925
0.0302823
0.0294437
0.0292642
0.029466
0.0300784
0.0310938
0.219703
0.242082
0.242479
0.229857
0.208815
0.186422
0.163848
0.142285
0.122606
0.105145
0.0899399
0.0768895
0.0658352
0.0566081
0.0490454
0.042993
0.0382997
0.0348123
0.032378
0.0308427
0.0300739
0.0299242
0.0301298
0.0307717
0.00365386
0.00803948
0.0156159
0.0237483
0.0318194
0.0521607
0.0154897
0.0230683
0.0339196
0.0431639
0.0520546
0.0665183
0.0194245
0.0304721
0.0431732
0.0535942
0.0633435
0.0758071
0.0215469
0.0354539
0.0494891
0.0608436
0.0711534
0.0823868
0.0231894
0.0394052
0.054465
0.0665359
0.0772006
0.0876193
0.0243036
0.0427769
0.058626
0.0712469
0.0821618
0.0920882
0.0248965
0.04578
0.0621838
0.0752353
0.086361
0.0960392
0.0250384
0.0484788
0.0652237
0.0786345
0.0899763
0.0995932
0.0251536
0.0507597
0.067773
0.0815206
0.0931204
0.102838
0.0256924
0.052588
0.0698434
0.0839423
0.0958739
0.105855
0.0262796
0.0539436
0.0714437
0.0859327
0.0982971
0.108724
0.0267215
0.0548292
0.0725798
0.0875116
0.100432
0.111513
0.0269344
0.055243
0.0732503
0.0886833
0.1023
0.114277
0.0268884
0.0551761
0.0734391
0.0894324
0.103896
0.117041
0.0265864
0.054611
0.0731252
0.0897192
0.105182
0.119797
0.0260671
0.0535191
0.0722595
0.0894752
0.106077
0.122487
0.0254338
0.0518598
0.0707758
0.088596
0.106451
0.124988
0.024926
0.0495801
0.0685836
0.0869351
0.106109
0.127086
0.0246921
0.0466238
0.0655621
0.0842923
0.104775
0.128448
0.0237585
0.0430766
0.0615429
0.0803931
0.102065
0.128573
0.0221886
0.038691
0.0562338
0.074831
0.0974121
0.126784
0.0200757
0.0329953
0.0490377
0.0668741
0.0898412
0.122099
0.0160909
0.0245959
0.0382743
0.0547065
0.0772118
0.112999
0.00388295
0.00839018
0.017814
0.032163
0.0542523
0.0979892
0.146847
0.191766
0.207183
0.207329
0.199478
0.184092
0.167122
0.149619
0.132408
0.116204
0.101379
0.0880958
0.076397
0.0662622
0.0576324
0.0504381
0.0446033
0.0400203
0.0366072
0.034192
0.0326276
0.0317889
0.0315768
0.0317035
0.110918
0.148195
0.170254
0.179632
0.180079
0.175377
0.165096
0.152903
0.13988
0.126709
0.113896
0.101774
0.0905498
0.0803498
0.0712326
0.0632502
0.056487
0.0509031
0.0463877
0.0428562
0.0402415
0.0384184
0.0373998
0.0368527
0.0992065
0.123608
0.142983
0.155582
0.161692
0.162485
0.160036
0.154052
0.146477
0.138044
0.129236
0.12042
0.111854
0.10371
0.0961267
0.0891845
0.0828993
0.0773516
0.0725785
0.0685455
0.0652532
0.0624896
0.0605035
0.0584451
0.0973779
0.113856
0.128704
0.140579
0.148883
0.153757
0.155877
0.155661
0.154179
0.151452
0.148222
0.144801
0.141421
0.138236
0.135328
0.132709
0.130346
0.128199
0.126203
0.124288
0.1224
0.120419
0.118556
0.116074
0.0992043
0.111609
0.123509
0.133942
0.142617
0.149473
0.154711
0.158662
0.161735
0.164171
0.166307
0.16838
0.170547
0.172878
0.175361
0.177919
0.180429
0.182742
0.184681
0.186072
0.186771
0.186836
0.186468
0.185859
0.102258
0.112612
0.122686
0.132043
0.140467
0.147953
0.154654
0.160799
0.166547
0.172051
0.177454
0.182832
0.188188
0.193457
0.198522
0.203235
0.20744
0.210988
0.21375
0.215642
0.216639
0.216803
0.216392
0.215689
0.105619
0.115024
0.123975
0.132386
0.140232
0.147571
0.154515
0.161198
0.167739
0.174193
0.180574
0.186847
0.192929
0.1987
0.204022
0.208763
0.212803
0.216054
0.218465
0.220023
0.22075
0.220697
0.220018
0.218889
0.108983
0.117988
0.126296
0.133996
0.141158
0.147898
0.154351
0.160595
0.166709
0.172765
0.178676
0.184329
0.189617
0.194412
0.198594
0.202082
0.204835
0.206855
0.208185
0.208885
0.208991
0.208551
0.20745
0.206002
0.112297
0.121248
0.129268
0.136515
0.143102
0.149163
0.154837
0.160225
0.165344
0.170122
0.174575
0.178654
0.18226
0.185295
0.187685
0.189419
0.190533
0.191102
0.191242
0.191111
0.190822
0.190457
0.189828
0.188755
0.115613
0.124818
0.132899
0.140029
0.146324
0.151917
0.156934
0.161467
0.165563
0.16923
0.172414
0.17505
0.17708
0.178508
0.179389
0.179791
0.179802
0.179537
0.179117
0.17867
0.178354
0.178448
0.179007
0.179456
0.119036
0.128826
0.13735
0.144768
0.151187
0.156727
0.161498
0.165583
0.169038
0.171888
0.174148
0.175836
0.176986
0.177645
0.177875
0.177773
0.177418
0.176897
0.176261
0.17554
0.174775
0.173978
0.174101
0.175284
0.12268
0.133437
0.142817
0.150959
0.157965
0.16395
0.169021
0.173263
0.176738
0.179499
0.181591
0.183068
0.183993
0.184437
0.184472
0.184175
0.18356
0.182568
0.181098
0.179061
0.176424
0.17318
0.169986
0.169234
0.126656
0.138809
0.149465
0.158752
0.166773
0.173661
0.179531
0.184471
0.188555
0.191846
0.194403
0.196283
0.197557
0.198266
0.198411
0.198113
0.197235
0.195424
0.192465
0.187901
0.181824
0.174675
0.167308
0.162324
0.131052
0.145061
0.157379
0.168139
0.177468
0.185534
0.192467
0.198366
0.203298
0.207332
0.210493
0.212804
0.214377
0.215112
0.214866
0.213431
0.210324
0.205527
0.199281
0.19206
0.183845
0.174601
0.164306
0.155137
0.135923
0.152252
0.166513
0.178901
0.189587
0.198794
0.206671
0.213331
0.2188
0.223202
0.226396
0.228295
0.22852
0.227269
0.224441
0.220087
0.214564
0.207684
0.19941
0.189643
0.178494
0.166184
0.153436
0.140948
0.141279
0.160351
0.176646
0.190543
0.202296
0.212206
0.22043
0.227129
0.232154
0.235077
0.23613
0.235516
0.233744
0.230282
0.225133
0.218254
0.209544
0.199117
0.187161
0.173944
0.159923
0.145587
0.131869
0.118932
0.147055
0.169187
0.187316
0.202254
0.214387
0.224134
0.231515
0.236109
0.238384
0.239
0.237915
0.235078
0.229919
0.222601
0.213314
0.202222
0.189548
0.175575
0.16072
0.145493
0.130618
0.116902
0.104985
0.0963537
0.153088
0.178404
0.197784
0.212893
0.224313
0.231971
0.236299
0.238398
0.238017
0.235416
0.230147
0.22232
0.212403
0.200605
0.187218
0.172584
0.157133
0.141398
0.126066
0.111937
0.0997308
0.0900465
0.0832293
0.0808098
0.159073
0.187391
0.207024
0.221069
0.229552
0.23418
0.235559
0.233548
0.228603
0.220424
0.209833
0.197229
0.183062
0.167781
0.151859
0.135835
0.120416
0.106389
0.0943751
0.0847533
0.0777084
0.0733863
0.0719173
0.0728945
0.164557
0.195251
0.213834
0.224575
0.230069
0.230646
0.227221
0.219719
0.20875
0.195405
0.180369
0.16431
0.147855
0.131563
0.116123
0.102271
0.0905498
0.0811634
0.0740583
0.0690944
0.0662211
0.0654172
0.0659504
0.0682195
0.169017
0.200894
0.216573
0.224193
0.224918
0.220638
0.211126
0.197668
0.181918
0.164936
0.147661
0.130842
0.115092
0.101084
0.0893096
0.0798515
0.072496
0.0669427
0.0629724
0.0605134
0.0595845
0.0598161
0.0609746
0.0639271
0.172258
0.203528
0.216171
0.21891
0.214954
0.204624
0.189246
0.171589
0.153181
0.135248
0.118605
0.103821
0.0913212
0.0811794
0.0731068
0.0667172
0.0617057
0.0579241
0.0553282
0.0539902
0.0539473
0.0546388
0.0564739
0.0597824
0.175246
0.203837
0.212555
0.210493
0.201267
0.184791
0.1657
0.146179
0.127779
0.111352
0.097283
0.0856799
0.0762837
0.0686568
0.0624386
0.0574153
0.0534795
0.0506178
0.0489115
0.0484556
0.0488577
0.0501314
0.0524516
0.0556628
0.180978
0.204364
0.207778
0.201
0.185094
0.164794
0.144123
0.125022
0.108388
0.0943988
0.0828927
0.0734529
0.0656479
0.0591974
0.0539441
0.0497784
0.0466584
0.0446038
0.0436494
0.0437208
0.0444577
0.0460924
0.0484751
0.0514936
)
;

boundaryField
{
    rotor
    {
        type            kqRWallFunction;
        value           nonuniform List<scalar> 
144
(
0.0050985
0.0182397
0.0548427
0.0975735
0.124326
0.120061
0.0050985
0.0180157
0.022574
0.0249521
0.0279375
0.0307116
0.0328881
0.0345068
0.035616
0.0362492
0.0364219
0.0362031
0.0356463
0.0348331
0.0337411
0.0323559
0.0306548
0.0285414
0.0255582
0.0240063
0.022491
0.0205274
0.0167505
0.00464675
0.00464675
0.00759823
0.0123163
0.0206233
0.0404486
0.118209
0.00692977
0.0339825
0.0764434
0.124711
0.153021
0.162469
0.00692977
0.0222032
0.0318708
0.0395525
0.0459972
0.051355
0.0557397
0.0592371
0.0619113
0.0638086
0.0649676
0.0654425
0.0654007
0.0647796
0.0635195
0.0615576
0.0588317
0.055271
0.050794
0.0453149
0.0387589
0.0310881
0.0217479
0.00621099
0.00621099
0.027499
0.0620401
0.103904
0.153722
0.183421
0.0103662
0.0151168
0.0169317
0.0184488
0.0217251
0.0637397
0.0103662
0.0279698
0.0363157
0.0417936
0.0456913
0.0487404
0.0512817
0.0534504
0.055304
0.0568761
0.0581931
0.0592814
0.0601736
0.0605461
0.0603934
0.0595669
0.0580246
0.0556837
0.0524104
0.0481439
0.0425823
0.0352448
0.0251756
0.0106745
0.0106745
0.0453284
0.093508
0.122543
0.137047
0.134887
0.00365386
0.00803948
0.0156159
0.0237483
0.0318194
0.0521607
0.00365386
0.0154897
0.0194245
0.0215469
0.0231894
0.0243036
0.0248965
0.0250384
0.0251536
0.0256924
0.0262796
0.0267215
0.0269344
0.0268884
0.0265864
0.0260671
0.0254338
0.024926
0.0246921
0.0237585
0.0221886
0.0200757
0.0160909
0.00388295
0.00388295
0.00839018
0.017814
0.032163
0.0542523