/*--------------------------------*- C++ -*----------------------------------*\
  =========                 |
  \\      /  F ield         | OpenFOAM: The Open Source CFD Toolbox
   \\    /   O peration     | Website:  https://openfoam.org
    \\  /    A nd           | Version:  11
     \\/     M anipulation  |
\*---------------------------------------------------------------------------*/
FoamFile
{
    format      ascii;
    class       surfaceScalarField;
    location    "1.66";
    object      meshPhi;
}
// * * * * * * * * * * * * * * * * * * * * * * * * * * * * * * * * * * * * * //

dimensions      [0 3 -1 0 0 0 0];

internalField   nonuniform List<scalar> 
5640
(
1.36927e-16
9.81747e-07
2.42038e-16
1.37445e-06
3.76881e-16
1.76715e-06
-1.33946e-15
2.15984e-06
-3.68177e-15
2.55254e-06
2.94524e-06
5.95091e-15
1.82124e-18
9.81747e-07
-3.88879e-16
1.37445e-06
-2.60419e-15
1.76715e-06
1.94347e-15
2.15984e-06
8.06599e-15
2.55254e-06
2.94524e-06
-9.03014e-15
-1.16508e-16
9.81747e-07
1.86282e-16
1.37445e-06
-1.56244e-15
1.76715e-06
-4.21258e-15
2.15984e-06
-7.49847e-15
2.55254e-06
2.94524e-06
7.72063e-16
8.69105e-17
9.81747e-07
-1.02e-16
1.37445e-06
2.69312e-15
1.76715e-06
7.44265e-15
2.15984e-06
3.25964e-15
2.55254e-06
2.94524e-06
-2.7981e-15
-4.84145e-17
9.81747e-07
3.95494e-17
1.37445e-06
1.94265e-16
1.76715e-06
-1.80631e-15
2.15984e-06
-4.20877e-15
2.55254e-06
2.94524e-06
5.01328e-15
-1.80146e-16
9.81747e-07
4.34072e-18
1.37445e-06
-1.84787e-15
1.76715e-06
-3.88631e-15
2.15984e-06
3.15688e-15
2.55254e-06
2.94524e-06
4.97989e-16
2.53919e-16
9.81747e-07
2.55393e-16
1.37445e-06
2.06588e-15
1.76715e-06
4.50391e-15
2.15984e-06
-2.31007e-15
2.55254e-06
2.94524e-06
5.40559e-16
2.16144e-17
9.81747e-07
-3.21762e-16
1.37445e-06
-1.149e-15
1.76715e-06
-5.28578e-15
2.15984e-06
-3.76874e-16
2.55254e-06
2.94524e-06
-5.64006e-15
-1.43454e-16
9.81747e-07
1.66353e-16
1.37445e-06
4.19108e-15
1.76715e-06
6.34926e-15
2.15984e-06
-8.05779e-16
2.55254e-06
2.94524e-06
8.3909e-16
-6.88525e-17
9.81747e-07
-9.21091e-17
1.37445e-06
-2.76943e-15
1.76715e-06
-3.68938e-16
2.15984e-06
-1.45091e-15
2.55254e-06
2.94524e-06
-1.76933e-16
1.66295e-16
9.81747e-07
-8.87797e-17
1.37445e-06
5.69633e-16
1.76715e-06
-2.10359e-15
2.15984e-06
9.65992e-15
2.55254e-06
2.94524e-06
5.29023e-15
-1.77823e-16
9.81747e-07
-2.05717e-17
1.37445e-06
-3.45605e-16
1.76715e-06
-4.17273e-15
2.15984e-06
-2.6226e-15
2.55254e-06
2.94524e-06
5.36946e-15
1.77775e-16
9.81747e-07
2.04054e-17
1.37445e-06
3.4536e-16
1.76715e-06
4.1725e-15
2.15984e-06
2.62231e-15
2.55254e-06
2.94524e-06
-5.36963e-15
-1.66376e-16
9.81747e-07
8.861e-17
1.37445e-06
-5.69857e-16
1.76715e-06
2.10345e-15
2.15984e-06
-9.66013e-15
2.55254e-06
2.94524e-06
-5.29045e-15
6.87899e-17
9.81747e-07
9.20414e-17
1.37445e-06
2.76933e-15
1.76715e-06
3.68723e-16
2.15984e-06
1.45052e-15
2.55254e-06
2.94524e-06
1.76448e-16
1.43367e-16
9.81747e-07
-1.66422e-16
1.37445e-06
-4.19117e-15
1.76715e-06
-6.34952e-15
2.15984e-06
8.05554e-16
2.55254e-06
2.94524e-06
-8.39516e-16
-2.16967e-17
9.81747e-07
3.21608e-16
1.37445e-06
1.1488e-15
1.76715e-06
5.28543e-15
2.15984e-06
3.76569e-16
2.55254e-06
2.94524e-06
5.63958e-15
-2.54008e-16
9.81747e-07
-2.55528e-16
1.37445e-06
-2.06608e-15
1.76715e-06
-4.50421e-15
2.15984e-06
2.30981e-15
2.55254e-06
2.94524e-06
-5.41e-16
1.80069e-16
9.81747e-07
-4.37154e-18
1.37445e-06
1.84765e-15
1.76715e-06
3.88607e-15
2.15984e-06
-3.15716e-15
2.55254e-06
2.94524e-06
-4.98475e-16
4.83348e-17
9.81747e-07
-3.95892e-17
1.37445e-06
-1.94501e-16
1.76715e-06
1.80603e-15
2.15984e-06
4.20828e-15
2.55254e-06
2.94524e-06
-5.01373e-15
-8.69993e-17
9.81747e-07
1.01863e-16
1.37445e-06
-2.69321e-15
1.76715e-06
-7.44297e-15
2.15984e-06
-3.26004e-15
2.55254e-06
2.94524e-06
2.79771e-15
1.16429e-16
9.81747e-07
-1.8647e-16
1.37445e-06
1.5623e-15
1.76715e-06
4.21236e-15
2.15984e-06
7.49825e-15
2.55254e-06
2.94524e-06
-7.72476e-16
-1.86188e-18
9.81747e-07
3.88704e-16
1.37445e-06
2.60402e-15
1.76715e-06
-1.9437e-15
2.15984e-06
-8.0663e-15
2.55254e-06
2.94524e-06
9.0296e-15
-1.3698e-16
-2.42164e-16
-3.7708e-16
1.33913e-15
3.68133e-15
-5.95148e-15
-1.13366e-14
4.53785e-06
-4.53785e-06
-4.81375e-16
5.23599e-06
-5.23599e-06
-5.35772e-15
5.93412e-06
-5.93412e-06
-1.13039e-14
6.63225e-06
-6.63225e-06
4.86798e-15
7.33038e-06
-7.33038e-06
-1.11004e-15
8.02851e-06
-8.02851e-06
-8.15915e-15
8.72664e-06
-8.72664e-06
1.3044e-14
9.42478e-06
-9.42478e-06
5.94814e-15
1.01229e-05
-1.01229e-05
-1.99745e-15
1.0821e-05
-1.0821e-05
2.43848e-14
1.15192e-05
-1.15192e-05
1.61869e-14
1.22173e-05
-1.22173e-05
-3.27883e-14
1.29154e-05
-1.29154e-05
-3.0541e-15
1.36136e-05
-1.36136e-05
-1.44452e-14
1.43117e-05
-1.43117e-05
-2.69057e-14
1.50098e-05
-1.50098e-05
7.73759e-15
1.5708e-05
-1.5708e-05
-4.43909e-15
1.64061e-05
-1.64061e-05
-1.8005e-14
1.71042e-05
-1.71042e-05
2.18178e-14
1.78024e-05
-1.78024e-05
8.20762e-15
1.85005e-05
-1.85005e-05
-6.08755e-15
1.91986e-05
-1.91986e-05
3.89149e-14
1.98967e-05
-1.98967e-05
2.05949e-05
-2.05949e-05
9.39865e-15
4.53785e-06
5.19524e-16
5.23599e-06
7.52766e-15
5.93412e-06
-4.4121e-15
6.63225e-06
3.7818e-15
7.33038e-06
1.33839e-14
8.02851e-06
-2.1107e-15
8.72664e-06
8.5268e-15
9.42478e-06
-1.00304e-14
1.01229e-05
1.86427e-15
1.0821e-05
-2.02052e-14
1.15192e-05
-7.01549e-15
1.22173e-05
7.51029e-15
1.29154e-05
2.36054e-14
1.36136e-05
-2.0436e-15
1.43117e-05
1.48291e-14
1.50098e-05
-1.38826e-14
1.5708e-05
2.38792e-15
1.64061e-05
2.04069e-14
1.71042e-05
-7.02199e-15
1.78024e-05
1.20625e-14
1.85005e-05
-2.59464e-14
1.91986e-05
1.84268e-15
1.98967e-05
2.05949e-05
-8.67665e-15
4.53785e-06
1.22917e-14
5.23599e-06
1.88258e-15
5.93412e-06
8.90182e-15
6.63225e-06
-5.10943e-15
7.33038e-06
-2.19913e-14
8.02851e-06
1.22631e-14
8.72664e-06
-5.37611e-15
9.42478e-06
4.45504e-15
1.01229e-05
-1.43075e-14
1.0821e-05
-7.32801e-15
1.15192e-05
7.03946e-15
1.22173e-05
2.39938e-14
1.29154e-05
-7.55775e-15
1.36136e-05
9.79728e-15
1.43117e-05
-1.62381e-14
1.50098e-05
4.02887e-14
1.5708e-05
1.44414e-14
1.64061e-05
-1.37096e-14
1.71042e-05
-7.89906e-15
1.78024e-05
-3.92554e-14
1.85005e-05
4.27447e-14
1.91986e-05
-8.86134e-15
1.98967e-05
2.05949e-05
5.98568e-15
4.53785e-06
2.18576e-16
5.23599e-06
-6.43589e-15
5.93412e-06
6.06398e-15
6.63225e-06
-2.09338e-15
7.33038e-06
1.61759e-14
8.02851e-06
-1.88315e-14
8.72664e-06
-2.35173e-15
9.42478e-06
9.17097e-15
1.01229e-05
-4.71228e-15
1.0821e-05
2.16261e-14
1.15192e-05
-2.96468e-14
1.22173e-05
-9.29205e-15
1.29154e-05
-1.89093e-14
1.36136e-05
4.46134e-15
1.43117e-05
3.01513e-14
1.50098e-05
-2.6221e-14
1.5708e-05
4.30174e-16
1.64061e-05
-2.11764e-14
1.71042e-05
1.8712e-14
1.78024e-05
-3.92562e-15
1.85005e-05
-2.91629e-14
1.91986e-05
1.52249e-14
1.98967e-05
2.05949e-05
6.71471e-15
4.53785e-06
-7.30721e-15
5.23599e-06
1.11004e-14
5.93412e-06
-4.2416e-15
6.63225e-06
1.51016e-14
7.33038e-06
-5.20968e-15
8.02851e-06
1.70127e-14
8.72664e-06
-3.94141e-15
9.42478e-06
-2.95108e-16
1.01229e-05
6.60996e-15
1.0821e-05
1.37051e-14
1.15192e-05
1.01832e-14
1.22173e-05
1.82139e-14
1.29154e-05
1.43665e-14
1.36136e-05
2.33382e-14
1.43117e-05
-2.53487e-14
1.50098e-05
2.90722e-14
1.5708e-05
-7.8321e-15
1.64061e-05
3.54123e-14
1.71042e-05
-4.51648e-15
1.78024e-05
4.23624e-14
1.85005e-05
-5.90048e-16
1.91986e-05
-8.7367e-15
1.98967e-05
2.05949e-05
-4.63094e-15
4.53785e-06
5.79715e-15
5.23599e-06
-1.61509e-14
5.93412e-06
-5.97511e-15
6.63225e-06
-8.55663e-15
7.33038e-06
4.22288e-15
8.02851e-06
-8.18875e-15
8.72664e-06
6.99778e-15
9.42478e-06
-2.42306e-14
1.01229e-05
-7.76976e-15
1.0821e-05
-2.27667e-14
1.15192e-05
8.34778e-15
1.22173e-05
-7.40569e-15
1.29154e-05
2.82623e-14
1.36136e-05
-4.57108e-14
1.43117e-05
-8.22715e-15
1.50098e-05
-2.82283e-14
1.5708e-05
-2.3439e-15
1.64061e-05
-6.94796e-15
1.71042e-05
2.21468e-14
1.78024e-05
-3.41214e-14
1.85005e-05
-3.7491e-15
1.91986e-05
-3.23494e-14
1.98967e-05
2.05949e-05
-8.92558e-15
4.53785e-06
-2.28916e-15
5.23599e-06
-2.22452e-15
5.93412e-06
6.61587e-15
6.63225e-06
-3.38848e-15
7.33038e-06
-3.90737e-15
8.02851e-06
-6.41957e-15
8.72664e-06
-7.1589e-15
9.42478e-06
6.80865e-15
1.01229e-05
6.98142e-15
1.0821e-05
-9.06557e-15
1.15192e-05
6.7578e-15
1.22173e-05
-2.88908e-14
1.29154e-05
-1.22363e-14
1.36136e-05
4.8008e-15
1.43117e-05
2.50236e-14
1.50098e-05
3.85877e-15
1.5708e-05
3.60434e-15
1.64061e-05
-2.04842e-14
1.71042e-05
-2.17688e-14
1.78024e-05
3.46198e-15
1.85005e-05
2.90344e-14
1.91986e-05
-1.6697e-15
1.98967e-05
2.05949e-05
6.21544e-15
4.53785e-06
-3.8793e-15
5.23599e-06
1.54218e-14
5.93412e-06
-7.06548e-15
6.63225e-06
-2.21141e-15
7.33038e-06
1.42779e-15
8.02851e-06
-5.49296e-15
8.72664e-06
1.32253e-14
9.42478e-06
6.04454e-15
1.01229e-05
-1.74514e-14
1.0821e-05
2.08854e-14
1.15192e-05
-2.14478e-14
1.22173e-05
1.9133e-14
1.29154e-05
-7.31733e-15
1.36136e-05
3.84801e-14
1.43117e-05
-1.29254e-14
1.50098e-05
-1.88376e-15
1.5708e-05
5.71114e-15
1.64061e-05
-7.58751e-15
1.71042e-05
2.76548e-14
1.78024e-05
1.40934e-14
1.85005e-05
-5.31488e-14
1.91986e-05
3.90807e-14
1.98967e-05
2.05949e-05
-1.49878e-15
4.53785e-06
1.08966e-14
5.23599e-06
-6.59987e-15
5.93412e-06
7.26495e-15
6.63225e-06
6.17413e-15
7.33038e-06
2.4879e-15
8.02851e-06
-9.65396e-16
8.72664e-06
-4.36586e-15
9.42478e-06
-8.90152e-15
1.01229e-05
1.38621e-14
1.0821e-05
1.06895e-14
1.15192e-05
6.24842e-15
1.22173e-05
-1.29669e-16
1.29154e-05
-3.44122e-15
1.36136e-05
-1.10507e-14
1.43117e-05
-1.77695e-14
1.50098e-05
1.76768e-14
1.5708e-05
9.95161e-15
1.64061e-05
3.32645e-15
1.71042e-05
-3.29735e-14
1.78024e-05
-1.04256e-14
1.85005e-05
3.0063e-14
1.91986e-05
-5.99995e-14
1.98967e-05
2.05949e-05
5.1701e-15
4.53785e-06
-7.45588e-15
5.23599e-06
-7.57292e-16
5.93412e-06
6.8383e-15
6.63225e-06
-9.9752e-15
7.33038e-06
-1.66601e-15
8.02851e-06
9.21826e-15
8.72664e-06
-1.34599e-14
9.42478e-06
2.32204e-14
1.01229e-05
1.04709e-14
1.0821e-05
-1.72736e-14
1.15192e-05
-3.02917e-15
1.22173e-05
1.13926e-14
1.29154e-05
-1.98175e-14
1.36136e-05
-4.6836e-15
1.43117e-05
5.03068e-14
1.50098e-05
-2.40481e-14
1.5708e-05
-6.66405e-15
1.64061e-05
1.42604e-14
1.71042e-05
1.64697e-15
1.78024e-05
-6.81565e-15
1.85005e-05
1.44374e-14
1.91986e-05
5.07531e-14
1.98967e-05
2.05949e-05
-6.19754e-15
4.53785e-06
2.78612e-17
5.23599e-06
1.15111e-14
5.93412e-06
-2.06262e-14
6.63225e-06
5.36575e-15
7.33038e-06
1.22058e-15
8.02851e-06
-4.76346e-17
8.72664e-06
1.2393e-14
9.42478e-06
-1.32275e-14
1.01229e-05
-1.88966e-14
1.0821e-05
-4.96564e-15
1.15192e-05
-7.15576e-15
1.22173e-05
-1.48908e-14
1.29154e-05
3.53374e-14
1.36136e-05
-4.83015e-18
1.43117e-05
-4.31405e-14
1.50098e-05
1.35622e-14
1.5708e-05
-2.82609e-14
1.64061e-05
2.45019e-15
1.71042e-05
-1.02451e-14
1.78024e-05
2.37977e-14
1.85005e-05
1.38747e-14
1.91986e-05
-4.55674e-14
1.98967e-05
2.05949e-05
-1.90691e-15
4.53785e-06
1.13053e-15
5.23599e-06
-2.16629e-14
5.93412e-06
9.62358e-15
6.63225e-06
1.5136e-14
7.33038e-06
-1.4066e-14
8.02851e-06
8.09222e-15
8.72664e-06
-2.69609e-14
9.42478e-06
-1.96705e-15
1.01229e-05
2.97158e-14
1.0821e-05
-1.17475e-14
1.15192e-05
1.9865e-14
1.22173e-05
-2.74469e-14
1.29154e-05
-2.06182e-14
1.36136e-05
1.60382e-14
1.43117e-05
-4.61849e-15
1.50098e-05
4.68649e-15
1.5708e-05
4.7964e-14
1.64061e-05
-1.37444e-14
1.71042e-05
3.23689e-14
1.78024e-05
-3.51897e-14
1.85005e-05
-2.49069e-14
1.91986e-05
7.19122e-14
1.98967e-05
2.05949e-05
1.90643e-15
4.53785e-06
-1.13077e-15
5.23599e-06
2.16614e-14
5.93412e-06
-9.62517e-15
6.63225e-06
-1.51381e-14
7.33038e-06
1.40641e-14
8.02851e-06
-8.09406e-15
8.72664e-06
2.69577e-14
9.42478e-06
1.96384e-15
1.01229e-05
-2.97193e-14
1.0821e-05
1.17427e-14
1.15192e-05
-1.98677e-14
1.22173e-05
2.7442e-14
1.29154e-05
2.0611e-14
1.36136e-05
-1.60453e-14
1.43117e-05
4.61098e-15
1.50098e-05
-4.69777e-15
1.5708e-05
-4.79701e-14
1.64061e-05
1.3734e-14
1.71042e-05
-3.23763e-14
1.78024e-05
3.51816e-14
1.85005e-05
2.48987e-14
1.91986e-05
-7.19209e-14
1.98967e-05
2.05949e-05
6.19702e-15
4.53785e-06
-2.89812e-17
5.23599e-06
-1.15121e-14
5.93412e-06
2.06252e-14
6.63225e-06
-5.36798e-15
7.33038e-06
-1.2228e-15
8.02851e-06
4.6325e-17
8.72664e-06
-1.23963e-14
9.42478e-06
1.32248e-14
1.01229e-05
1.88927e-14
1.0821e-05
4.96294e-15
1.15192e-05
7.15291e-15
1.22173e-05
1.48847e-14
1.29154e-05
-3.53409e-14
1.36136e-05
-3.71944e-18
1.43117e-05
4.31353e-14
1.50098e-05
-1.35699e-14
1.5708e-05
2.82517e-14
1.64061e-05
-2.46005e-15
1.71042e-05
1.02323e-14
1.78024e-05
-2.38074e-14
1.85005e-05
-1.38793e-14
1.91986e-05
4.55599e-14
1.98967e-05
2.05949e-05
-5.17039e-15
4.53785e-06
7.45504e-15
5.23599e-06
7.56341e-16
5.93412e-06
-6.8401e-15
6.63225e-06
9.97357e-15
7.33038e-06
1.66388e-15
8.02851e-06
-9.21979e-15
8.72664e-06
1.34577e-14
9.42478e-06
-2.32227e-14
1.01229e-05
-1.04737e-14
1.0821e-05
1.72706e-14
1.15192e-05
3.02536e-15
1.22173e-05
-1.14007e-14
1.29154e-05
1.98142e-14
1.36136e-05
4.6763e-15
1.43117e-05
-5.03086e-14
1.50098e-05
2.4042e-14
1.5708e-05
6.65552e-15
1.64061e-05
-1.42653e-14
1.71042e-05
-1.65649e-15
1.78024e-05
6.8058e-15
1.85005e-05
-1.44491e-14
1.91986e-05
-5.07614e-14
1.98967e-05
2.05949e-05
1.49826e-15
4.53785e-06
-1.08973e-14
5.23599e-06
6.59901e-15
5.93412e-06
-7.26654e-15
6.63225e-06
-6.17602e-15
7.33038e-06
-2.48921e-15
8.02851e-06
9.63915e-16
8.72664e-06
4.36395e-15
9.42478e-06
8.90082e-15
1.01229e-05
-1.38647e-14
1.0821e-05
-1.06923e-14
1.15192e-05
-6.25212e-15
1.22173e-05
1.23427e-16
1.29154e-05
3.43565e-15
1.36136e-05
1.10384e-14
1.43117e-05
1.77622e-14
1.50098e-05
-1.76825e-14
1.5708e-05
-9.95683e-15
1.64061e-05
-3.33322e-15
1.71042e-05
3.29663e-14
1.78024e-05
1.04173e-14
1.85005e-05
-3.00715e-14
1.91986e-05
5.99911e-14
1.98967e-05
2.05949e-05
-6.21589e-15
4.53785e-06
3.87866e-15
5.23599e-06
-1.54225e-14
5.93412e-06
7.06429e-15
6.63225e-06
2.20994e-15
7.33038e-06
-1.42973e-15
8.02851e-06
5.49288e-15
8.72664e-06
-1.32264e-14
9.42478e-06
-6.0475e-15
1.01229e-05
1.74496e-14
1.0821e-05
-2.08901e-14
1.15192e-05
2.14423e-14
1.22173e-05
-1.91376e-14
1.29154e-05
7.31346e-15
1.36136e-05
-3.84896e-14
1.43117e-05
1.29217e-14
1.50098e-05
1.87899e-15
1.5708e-05
-5.71892e-15
1.64061e-05
7.58138e-15
1.71042e-05
-2.7662e-14
1.78024e-05
-1.4106e-14
1.85005e-05
5.31322e-14
1.91986e-05
-3.90895e-14
1.98967e-05
2.05949e-05
8.92485e-15
4.53785e-06
2.2884e-15
5.23599e-06
2.22339e-15
5.93412e-06
-6.61753e-15
6.63225e-06
3.3876e-15
7.33038e-06
3.9061e-15
8.02851e-06
6.41741e-15
8.72664e-06
7.15779e-15
9.42478e-06
-6.81268e-15
1.01229e-05
-6.9854e-15
1.0821e-05
9.06149e-15
1.15192e-05
-6.76295e-15
1.22173e-05
2.88851e-14
1.29154e-05
1.22331e-14
1.36136e-05
-4.80716e-15
1.43117e-05
-2.50289e-14
1.50098e-05
-3.86555e-15
1.5708e-05
-3.61075e-15
1.64061e-05
2.0481e-14
1.71042e-05
2.17532e-14
1.78024e-05
-3.47201e-15
1.85005e-05
-2.90456e-14
1.91986e-05
1.65408e-15
1.98967e-05
2.05949e-05
4.63029e-15
4.53785e-06
-5.79786e-15
5.23599e-06
1.61498e-14
5.93412e-06
5.97391e-15
6.63225e-06
8.55457e-15
7.33038e-06
-4.22519e-15
8.02851e-06
8.18573e-15
8.72664e-06
-7.00021e-15
9.42478e-06
2.4228e-14
1.01229e-05
7.7686e-15
1.0821e-05
2.27622e-14
1.15192e-05
-8.35164e-15
1.22173e-05
7.40147e-15
1.29154e-05
-2.82672e-14
1.36136e-05
4.57062e-14
1.43117e-05
8.21653e-15
1.50098e-05
2.82232e-14
1.5708e-05
2.33462e-15
1.64061e-05
6.94377e-15
1.71042e-05
-2.21543e-14
1.78024e-05
3.41054e-14
1.85005e-05
3.73584e-15
1.91986e-05
3.23371e-14
1.98967e-05
2.05949e-05
-6.71546e-15
4.53785e-06
7.30634e-15
5.23599e-06
-1.11012e-14
5.93412e-06
4.24073e-15
6.63225e-06
-1.51031e-14
7.33038e-06
5.20806e-15
8.02851e-06
-1.70142e-14
8.72664e-06
3.94048e-15
9.42478e-06
2.93163e-16
1.01229e-05
-6.61236e-15
1.0821e-05
-1.3707e-14
1.15192e-05
-1.01854e-14
1.22173e-05
-1.82206e-14
1.29154e-05
-1.4372e-14
1.36136e-05
-2.33426e-14
1.43117e-05
2.53392e-14
1.50098e-05
-2.90786e-14
1.5708e-05
7.82439e-15
1.64061e-05
-3.54178e-14
1.71042e-05
4.50554e-15
1.78024e-05
-4.23734e-14
1.85005e-05
5.80028e-16
1.91986e-05
8.72609e-15
1.98967e-05
2.05949e-05
-5.98646e-15
4.53785e-06
-2.19344e-16
5.23599e-06
6.43503e-15
5.93412e-06
-6.06465e-15
6.63225e-06
2.09162e-15
7.33038e-06
-1.61774e-14
8.02851e-06
1.88298e-14
8.72664e-06
2.34928e-15
9.42478e-06
-9.17369e-15
1.01229e-05
4.70849e-15
1.0821e-05
-2.16288e-14
1.15192e-05
2.96434e-14
1.22173e-05
9.28507e-15
1.29154e-05
1.89034e-14
1.36136e-05
-4.46886e-15
1.43117e-05
-3.01601e-14
1.50098e-05
2.62107e-14
1.5708e-05
-4.37969e-16
1.64061e-05
2.1166e-14
1.71042e-05
-1.87202e-14
1.78024e-05
3.91482e-15
1.85005e-05
2.91525e-14
1.91986e-05
-1.52423e-14
1.98967e-05
2.05949e-05
8.67564e-15
4.53785e-06
-1.22927e-14
5.23599e-06
-1.88374e-15
5.93412e-06
-8.90316e-15
6.63225e-06
5.10741e-15
7.33038e-06
2.19899e-14
8.02851e-06
-1.22654e-14
8.72664e-06
5.37334e-15
9.42478e-06
-4.45826e-15
1.01229e-05
1.43035e-14
1.0821e-05
7.3235e-15
1.15192e-05
-7.04295e-15
1.22173e-05
-2.39994e-14
1.29154e-05
7.55146e-15
1.36136e-05
-9.80328e-15
1.43117e-05
1.62321e-14
1.50098e-05
-4.02997e-14
1.5708e-05
-1.44488e-14
1.64061e-05
1.36977e-14
1.71042e-05
7.88996e-15
1.78024e-05
3.92468e-14
1.85005e-05
-4.27566e-14
1.91986e-05
8.84628e-15
1.98967e-05
2.05949e-05
-9.3991e-15
4.53785e-06
-5.20811e-16
5.23599e-06
-7.52902e-15
5.93412e-06
4.41105e-15
6.63225e-06
-3.78432e-15
7.33038e-06
-1.33851e-14
8.02851e-06
2.10787e-15
8.72664e-06
-8.5303e-15
9.42478e-06
1.00247e-14
1.01229e-05
-1.86752e-15
1.0821e-05
2.02002e-14
1.15192e-05
7.01034e-15
1.22173e-05
-7.51334e-15
1.29154e-05
-2.36101e-14
1.36136e-05
2.04059e-15
1.43117e-05
-1.48377e-14
1.50098e-05
1.38762e-14
1.5708e-05
-2.39395e-15
1.64061e-05
-2.04165e-14
1.71042e-05
7.01055e-15
1.78024e-05
-1.2071e-14
1.85005e-05
2.59368e-14
1.91986e-05
-1.8508e-15
1.98967e-05
2.05949e-05
1.13357e-14
4.53785e-06
4.80732e-16
5.23599e-06
5.35643e-15
5.93412e-06
1.13029e-14
6.63225e-06
-4.86918e-15
7.33038e-06
1.10893e-15
8.02851e-06
8.15613e-15
8.72664e-06
-1.30456e-14
9.42478e-06
-5.95086e-15
1.01229e-05
1.99502e-15
1.0821e-05
-2.43898e-14
1.15192e-05
-1.61924e-14
1.22173e-05
3.27838e-14
1.29154e-05
3.04839e-15
1.36136e-05
1.44387e-14
1.43117e-05
2.6898e-14
1.50098e-05
-7.74204e-15
1.5708e-05
4.4357e-15
1.64061e-05
1.79965e-14
1.71042e-05
-2.18261e-14
1.78024e-05
-8.2176e-15
1.85005e-05
6.07578e-15
1.91986e-05
-3.89255e-14
1.98967e-05
2.05949e-05
1.36927e-16
9.81747e-07
2.4205e-16
1.37445e-06
3.76887e-16
1.76715e-06
-1.33946e-15
2.15984e-06
-3.68181e-15
2.55254e-06
2.94524e-06
5.95095e-15
1.82124e-18
9.81747e-07
-3.88879e-16
1.37445e-06
-2.60419e-15
1.76715e-06
1.94347e-15
2.15984e-06
8.06599e-15
2.55254e-06
2.94524e-06
-9.03014e-15
-1.16508e-16
9.81747e-07
1.86282e-16
1.37445e-06
-1.56244e-15
1.76715e-06
-4.21258e-15
2.15984e-06
-7.49847e-15
2.55254e-06
2.94524e-06
7.72063e-16
8.69105e-17
9.81747e-07
-1.02e-16
1.37445e-06
2.69312e-15
1.76715e-06
7.44265e-15
2.15984e-06
3.25964e-15
2.55254e-06
2.94524e-06
-2.7981e-15
-4.84145e-17
9.81747e-07
3.95494e-17
1.37445e-06
1.94265e-16
1.76715e-06
-1.80631e-15
2.15984e-06
-4.20877e-15
2.55254e-06
2.94524e-06
5.01328e-15
-1.80146e-16
9.81747e-07
4.34072e-18
1.37445e-06
-1.84787e-15
1.76715e-06
-3.88631e-15
2.15984e-06
3.15688e-15
2.55254e-06
2.94524e-06
4.97989e-16
2.53919e-16
9.81747e-07
2.55393e-16
1.37445e-06
2.06588e-15
1.76715e-06
4.50391e-15
2.15984e-06
-2.31007e-15
2.55254e-06
2.94524e-06
5.40559e-16
2.16144e-17
9.81747e-07
-3.21762e-16
1.37445e-06
-1.149e-15
1.76715e-06
-5.28578e-15
2.15984e-06
-3.76874e-16
2.55254e-06
2.94524e-06
-5.64006e-15
-1.43454e-16
9.81747e-07
1.66353e-16
1.37445e-06
4.19108e-15
1.76715e-06
6.34926e-15
2.15984e-06
-8.05779e-16
2.55254e-06
2.94524e-06
8.3909e-16
-6.88525e-17
9.81747e-07
-9.21091e-17
1.37445e-06
-2.76943e-15
1.76715e-06
-3.68938e-16
2.15984e-06
-1.45091e-15
2.55254e-06
2.94524e-06
-1.76933e-16
1.66295e-16
9.81747e-07
-8.87797e-17
1.37445e-06
5.69633e-16
1.76715e-06
-2.10359e-15
2.15984e-06
9.65992e-15
2.55254e-06
2.94524e-06
5.29023e-15
-1.77823e-16
9.81747e-07
-2.05717e-17
1.37445e-06
-3.45605e-16
1.76715e-06
-4.17273e-15
2.15984e-06
-2.6226e-15
2.55254e-06
2.94524e-06
5.36946e-15
1.77775e-16
9.81747e-07
2.04054e-17
1.37445e-06
3.4536e-16
1.76715e-06
4.1725e-15
2.15984e-06
2.62231e-15
2.55254e-06
2.94524e-06
-5.36963e-15
-1.66376e-16
9.81747e-07
8.861e-17
1.37445e-06
-5.69857e-16
1.76715e-06
2.10345e-15
2.15984e-06
-9.66013e-15
2.55254e-06
2.94524e-06
-5.29045e-15
6.87899e-17
9.81747e-07
9.20414e-17
1.37445e-06
2.76933e-15
1.76715e-06
3.68723e-16
2.15984e-06
1.45052e-15
2.55254e-06
2.94524e-06
1.76448e-16
1.43367e-16
9.81747e-07
-1.66422e-16
1.37445e-06
-4.19117e-15
1.76715e-06
-6.34952e-15
2.15984e-06
8.05554e-16
2.55254e-06
2.94524e-06
-8.39516e-16
-2.16967e-17
9.81747e-07
3.21608e-16
1.37445e-06
1.1488e-15
1.76715e-06
5.28543e-15
2.15984e-06
3.76569e-16
2.55254e-06
2.94524e-06
5.63958e-15
-2.54008e-16
9.81747e-07
-2.55528e-16
1.37445e-06
-2.06608e-15
1.76715e-06
-4.50421e-15
2.15984e-06
2.30981e-15
2.55254e-06
2.94524e-06
-5.41e-16
1.80069e-16
9.81747e-07
-4.37154e-18
1.37445e-06
1.84765e-15
1.76715e-06
3.88607e-15
2.15984e-06
-3.15716e-15
2.55254e-06
2.94524e-06
-4.98475e-16
4.83348e-17
9.81747e-07
-3.95892e-17
1.37445e-06
-1.94501e-16
1.76715e-06
1.80603e-15
2.15984e-06
4.20828e-15
2.55254e-06
2.94524e-06
-5.01373e-15
-8.69993e-17
9.81747e-07
1.01863e-16
1.37445e-06
-2.69321e-15
1.76715e-06
-7.44297e-15
2.15984e-06
-3.26004e-15
2.55254e-06
2.94524e-06
2.79771e-15
1.16429e-16
9.81747e-07
-1.8647e-16
1.37445e-06
1.5623e-15
1.76715e-06
4.21236e-15
2.15984e-06
7.49825e-15
2.55254e-06
2.94524e-06
-7.72476e-16
-1.86188e-18
9.81747e-07
3.88704e-16
1.37445e-06
2.60402e-15
1.76715e-06
-1.9437e-15
2.15984e-06
-8.0663e-15
2.55254e-06
2.94524e-06
9.0296e-15
-1.36973e-16
-2.42164e-16
-3.77068e-16
1.33911e-15
3.68138e-15
-5.95148e-15
-1.13364e-14
4.53785e-06
-4.81546e-16
5.23599e-06
-5.35784e-15
5.93412e-06
-1.13039e-14
6.63225e-06
4.86823e-15
7.33038e-06
-1.11011e-15
8.02851e-06
-8.15878e-15
8.72664e-06
1.30429e-14
9.42478e-06
5.94829e-15
1.01229e-05
-1.99719e-15
1.0821e-05
2.43858e-14
1.15192e-05
1.61869e-14
1.22173e-05
-3.27883e-14
1.29154e-05
-3.0541e-15
1.36136e-05
-1.44456e-14
1.43117e-05
-2.69051e-14
1.50098e-05
7.73632e-15
1.5708e-05
-4.44042e-15
1.64061e-05
-1.80047e-14
1.71042e-05
2.18164e-14
1.78024e-05
8.20646e-15
1.85005e-05
-6.09068e-15
1.91986e-05
3.89186e-14
1.98967e-05
2.05949e-05
9.39865e-15
4.53785e-06
5.19524e-16
5.23599e-06
7.52766e-15
5.93412e-06
-4.4121e-15
6.63225e-06
3.7818e-15
7.33038e-06
1.33839e-14
8.02851e-06
-2.1107e-15
8.72664e-06
8.5268e-15
9.42478e-06
-1.00304e-14
1.01229e-05
1.86427e-15
1.0821e-05
-2.02052e-14
1.15192e-05
-7.01549e-15
1.22173e-05
7.51029e-15
1.29154e-05
2.36054e-14
1.36136e-05
-2.0436e-15
1.43117e-05
1.48291e-14
1.50098e-05
-1.38826e-14
1.5708e-05
2.38792e-15
1.64061e-05
2.04069e-14
1.71042e-05
-7.02199e-15
1.78024e-05
1.20625e-14
1.85005e-05
-2.59464e-14
1.91986e-05
1.84268e-15
1.98967e-05
2.05949e-05
-8.67665e-15
4.53785e-06
1.22917e-14
5.23599e-06
1.88258e-15
5.93412e-06
8.90182e-15
6.63225e-06
-5.10943e-15
7.33038e-06
-2.19913e-14
8.02851e-06
1.22631e-14
8.72664e-06
-5.37611e-15
9.42478e-06
4.45504e-15
1.01229e-05
-1.43075e-14
1.0821e-05
-7.32801e-15
1.15192e-05
7.03946e-15
1.22173e-05
2.39938e-14
1.29154e-05
-7.55775e-15
1.36136e-05
9.79728e-15
1.43117e-05
-1.62381e-14
1.50098e-05
4.02887e-14
1.5708e-05
1.44414e-14
1.64061e-05
-1.37096e-14
1.71042e-05
-7.89906e-15
1.78024e-05
-3.92554e-14
1.85005e-05
4.27447e-14
1.91986e-05
-8.86134e-15
1.98967e-05
2.05949e-05
5.98568e-15
4.53785e-06
2.18576e-16
5.23599e-06
-6.43589e-15
5.93412e-06
6.06398e-15
6.63225e-06
-2.09338e-15
7.33038e-06
1.61759e-14
8.02851e-06
-1.88315e-14
8.72664e-06
-2.35173e-15
9.42478e-06
9.17097e-15
1.01229e-05
-4.71228e-15
1.0821e-05
2.16261e-14
1.15192e-05
-2.96468e-14
1.22173e-05
-9.29205e-15
1.29154e-05
-1.89093e-14
1.36136e-05
4.46134e-15
1.43117e-05
3.01513e-14
1.50098e-05
-2.6221e-14
1.5708e-05
4.30174e-16
1.64061e-05
-2.11764e-14
1.71042e-05
1.8712e-14
1.78024e-05
-3.92562e-15
1.85005e-05
-2.91629e-14
1.91986e-05
1.52249e-14
1.98967e-05
2.05949e-05
6.71471e-15
4.53785e-06
-7.30721e-15
5.23599e-06
1.11004e-14
5.93412e-06
-4.2416e-15
6.63225e-06
1.51016e-14
7.33038e-06
-5.20968e-15
8.02851e-06
1.70127e-14
8.72664e-06
-3.94141e-15
9.42478e-06
-2.95108e-16
1.01229e-05
6.60996e-15
1.0821e-05
1.37051e-14
1.15192e-05
1.01832e-14
1.22173e-05
1.82139e-14
1.29154e-05
1.43665e-14
1.36136e-05
2.33382e-14
1.43117e-05
-2.53487e-14
1.50098e-05
2.90722e-14
1.5708e-05
-7.8321e-15
1.64061e-05
3.54123e-14
1.71042e-05
-4.51648e-15
1.78024e-05
4.23624e-14
1.85005e-05
-5.90048e-16
1.91986e-05
-8.7367e-15
1.98967e-05
2.05949e-05
-4.63094e-15
4.53785e-06
5.79715e-15
5.23599e-06
-1.61509e-14
5.93412e-06
-5.97511e-15
6.63225e-06
-8.55663e-15
7.33038e-06
4.22288e-15
8.02851e-06
-8.18875e-15
8.72664e-06
6.99778e-15
9.42478e-06
-2.42306e-14
1.01229e-05
-7.76976e-15
1.0821e-05
-2.27667e-14
1.15192e-05
8.34778e-15
1.22173e-05
-7.40569e-15
1.29154e-05
2.82623e-14
1.36136e-05
-4.57108e-14
1.43117e-05
-8.22715e-15
1.50098e-05
-2.82283e-14
1.5708e-05
-2.3439e-15
1.64061e-05
-6.94796e-15
1.71042e-05
2.21468e-14
1.78024e-05
-3.41214e-14
1.85005e-05
-3.7491e-15
1.91986e-05
-3.23494e-14
1.98967e-05
2.05949e-05
-8.92558e-15
4.53785e-06
-2.28916e-15
5.23599e-06
-2.22452e-15
5.93412e-06
6.61587e-15
6.63225e-06
-3.38848e-15
7.33038e-06
-3.90737e-15
8.02851e-06
-6.41957e-15
8.72664e-06
-7.1589e-15
9.42478e-06
6.80865e-15
1.01229e-05
6.98142e-15
1.0821e-05
-9.06557e-15
1.15192e-05
6.7578e-15
1.22173e-05
-2.88908e-14
1.29154e-05
-1.22363e-14
1.36136e-05
4.8008e-15
1.43117e-05
2.50236e-14
1.50098e-05
3.85877e-15
1.5708e-05
3.60434e-15
1.64061e-05
-2.04842e-14
1.71042e-05
-2.17688e-14
1.78024e-05
3.46198e-15
1.85005e-05
2.90344e-14
1.91986e-05
-1.6697e-15
1.98967e-05
2.05949e-05
6.21544e-15
4.53785e-06
-3.8793e-15
5.23599e-06
1.54218e-14
5.93412e-06
-7.06548e-15
6.63225e-06
-2.21141e-15
7.33038e-06
1.42779e-15
8.02851e-06
-5.49296e-15
8.72664e-06
1.32253e-14
9.42478e-06
6.04454e-15
1.01229e-05
-1.74514e-14
1.0821e-05
2.08854e-14
1.15192e-05
-2.14478e-14
1.22173e-05
1.9133e-14
1.29154e-05
-7.31733e-15
1.36136e-05
3.84801e-14
1.43117e-05
-1.29254e-14
1.50098e-05
-1.88376e-15
1.5708e-05
5.71114e-15
1.64061e-05
-7.58751e-15
1.71042e-05
2.76548e-14
1.78024e-05
1.40934e-14
1.85005e-05
-5.31488e-14
1.91986e-05
3.90807e-14
1.98967e-05
2.05949e-05
-1.49878e-15
4.53785e-06
1.08966e-14
5.23599e-06
-6.59987e-15
5.93412e-06
7.26495e-15
6.63225e-06
6.17413e-15
7.33038e-06
2.4879e-15
8.02851e-06
-9.65396e-16
8.72664e-06
-4.36586e-15
9.42478e-06
-8.90152e-15
1.01229e-05
1.38621e-14
1.0821e-05
1.06895e-14
1.15192e-05
6.24842e-15
1.22173e-05
-1.29669e-16
1.29154e-05
-3.44122e-15
1.36136e-05
-1.10507e-14
1.43117e-05
-1.77695e-14
1.50098e-05
1.76768e-14
1.5708e-05
9.95161e-15
1.64061e-05
3.32645e-15
1.71042e-05
-3.29735e-14
1.78024e-05
-1.04256e-14
1.85005e-05
3.0063e-14
1.91986e-05
-5.99995e-14
1.98967e-05
2.05949e-05
5.1701e-15
4.53785e-06
-7.45588e-15
5.23599e-06
-7.57292e-16
5.93412e-06
6.8383e-15
6.63225e-06
-9.9752e-15
7.33038e-06
-1.66601e-15
8.02851e-06
9.21826e-15
8.72664e-06
-1.34599e-14
9.42478e-06
2.32204e-14
1.01229e-05
1.04709e-14
1.0821e-05
-1.72736e-14
1.15192e-05
-3.02917e-15
1.22173e-05
1.13926e-14
1.29154e-05
-1.98175e-14
1.36136e-05
-4.6836e-15
1.43117e-05
5.03068e-14
1.50098e-05
-2.40481e-14
1.5708e-05
-6.66405e-15
1.64061e-05
1.42604e-14
1.71042e-05
1.64697e-15
1.78024e-05
-6.81565e-15
1.85005e-05
1.44374e-14
1.91986e-05
5.07531e-14
1.98967e-05
2.05949e-05
-6.19754e-15
4.53785e-06
2.78612e-17
5.23599e-06
1.15111e-14
5.93412e-06
-2.06262e-14
6.63225e-06
5.36575e-15
7.33038e-06
1.22058e-15
8.02851e-06
-4.76346e-17
8.72664e-06
1.2393e-14
9.42478e-06
-1.32275e-14
1.01229e-05
-1.88966e-14
1.0821e-05
-4.96564e-15
1.15192e-05
-7.15576e-15
1.22173e-05
-1.48908e-14
1.29154e-05
3.53374e-14
1.36136e-05
-4.83015e-18
1.43117e-05
-4.31405e-14
1.50098e-05
1.35622e-14
1.5708e-05
-2.82609e-14
1.64061e-05
2.45019e-15
1.71042e-05
-1.02451e-14
1.78024e-05
2.37977e-14
1.85005e-05
1.38747e-14
1.91986e-05
-4.55674e-14
1.98967e-05
2.05949e-05
-1.90691e-15
4.53785e-06
1.13053e-15
5.23599e-06
-2.16629e-14
5.93412e-06
9.62358e-15
6.63225e-06
1.5136e-14
7.33038e-06
-1.4066e-14
8.02851e-06
8.09222e-15
8.72664e-06
-2.69609e-14
9.42478e-06
-1.96705e-15
1.01229e-05
2.97158e-14
1.0821e-05
-1.17475e-14
1.15192e-05
1.9865e-14
1.22173e-05
-2.74469e-14
1.29154e-05
-2.06182e-14
1.36136e-05
1.60382e-14
1.43117e-05
-4.61849e-15
1.50098e-05
4.68649e-15
1.5708e-05
4.7964e-14
1.64061e-05
-1.37444e-14
1.71042e-05
3.23689e-14
1.78024e-05
-3.51897e-14
1.85005e-05
-2.49069e-14
1.91986e-05
7.19122e-14
1.98967e-05
2.05949e-05
1.90643e-15
4.53785e-06
-1.13077e-15
5.23599e-06
2.16614e-14
5.93412e-06
-9.62517e-15
6.63225e-06
-1.51381e-14
7.33038e-06
1.40641e-14
8.02851e-06
-8.09406e-15
8.72664e-06
2.69577e-14
9.42478e-06
1.96384e-15
1.01229e-05
-2.97193e-14
1.0821e-05
1.17427e-14
1.15192e-05
-1.98677e-14
1.22173e-05
2.7442e-14
1.29154e-05
2.0611e-14
1.36136e-05
-1.60453e-14
1.43117e-05
4.61098e-15
1.50098e-05
-4.69777e-15
1.5708e-05
-4.79701e-14
1.64061e-05
1.3734e-14
1.71042e-05
-3.23763e-14
1.78024e-05
3.51816e-14
1.85005e-05
2.48987e-14
1.91986e-05
-7.19209e-14
1.98967e-05
2.05949e-05
6.19702e-15
4.53785e-06
-2.89812e-17
5.23599e-06
-1.15121e-14
5.93412e-06
2.06252e-14
6.63225e-06
-5.36798e-15
7.33038e-06
-1.2228e-15
8.02851e-06
4.6325e-17
8.72664e-06
-1.23963e-14
9.42478e-06
1.32248e-14
1.01229e-05
1.88927e-14
1.0821e-05
4.96294e-15
1.15192e-05
7.15291e-15
1.22173e-05
1.48847e-14
1.29154e-05
-3.53409e-14
1.36136e-05
-3.71944e-18
1.43117e-05
4.31353e-14
1.50098e-05
-1.35699e-14
1.5708e-05
2.82517e-14
1.64061e-05
-2.46005e-15
1.71042e-05
1.02323e-14
1.78024e-05
-2.38074e-14
1.85005e-05
-1.38793e-14
1.91986e-05
4.55599e-14
1.98967e-05
2.05949e-05
-5.17039e-15
4.53785e-06
7.45504e-15
5.23599e-06
7.56341e-16
5.93412e-06
-6.8401e-15
6.63225e-06
9.97357e-15
7.33038e-06
1.66388e-15
8.02851e-06
-9.21979e-15
8.72664e-06
1.34577e-14
9.42478e-06
-2.32227e-14
1.01229e-05
-1.04737e-14
1.0821e-05
1.72706e-14
1.15192e-05
3.02536e-15
1.22173e-05
-1.14007e-14
1.29154e-05
1.98142e-14
1.36136e-05
4.6763e-15
1.43117e-05
-5.03086e-14
1.50098e-05
2.4042e-14
1.5708e-05
6.65552e-15
1.64061e-05