/*--------------------------------*- C++ -*----------------------------------*\
  =========                 |
  \\      /  F ield         | OpenFOAM: The Open Source CFD Toolbox
   \\    /   O peration     | Website:  https://openfoam.org
    \\  /    A nd           | Version:  11
     \\/     M anipulation  |
\*---------------------------------------------------------------------------*/
FoamFile
{
    format      ascii;
    class       volScalarField;
    location    "1.66";
    object      nut;
}
// * * * * * * * * * * * * * * * * * * * * * * * * * * * * * * * * * * * * * //

dimensions      [0 2 -1 0 0 0 0];

internalField   nonuniform List<scalar> 
2880
(
9.85114e-07
6.83336e-06
3.37593e-05
8.94458e-05
0.000159003
0.000208554
3.12103e-05
4.90864e-05
0.000131865
0.000254058
0.000384998
0.000392353
0.000180048
0.000115022
0.000244149
0.00040606
0.00056086
0.00064542
4.71345e-05
0.000179732
0.000339369
0.00051901
0.000673378
0.00077286
5.022e-05
0.000236453
0.000414489
0.000595988
0.000735769
0.000820577
5.25345e-05
0.000282652
0.000470714
0.000644191
0.000765185
0.000829693
5.43624e-05
0.000317594
0.000510412
0.000671251
0.000773941
0.000821883
5.56856e-05
0.000341969
0.000536184
0.000683096
0.000768615
0.000804694
5.65735e-05
0.000357085
0.00055047
0.00068377
0.000755522
0.000784817
5.70734e-05
0.000364143
0.00055542
0.000676759
0.000738323
0.000764528
5.72084e-05
0.000364088
0.000552788
0.000664038
0.000718904
0.000744412
5.70344e-05
0.000357454
0.000543988
0.000647246
0.000698139
0.000724759
5.65921e-05
0.000344177
0.000530129
0.000627224
0.000676549
0.000705157
5.59403e-05
0.000324825
0.000511798
0.000604342
0.000653125
0.000685064
5.50535e-05
0.000300823
0.000489106
0.000578708
0.000627689
0.000663477
5.39079e-05
0.000273478
0.000462097
0.00055008
0.000599291
0.00063957
5.24675e-05
0.000244164
0.000430784
0.000517907
0.000566824
0.00061221
5.0621e-05
0.000214765
0.000395215
0.000481264
0.000528925
0.000579857
4.78917e-05
0.000188973
0.000355382
0.000438875
0.000483914
0.000540992
0.000191957
0.000177377
0.000309888
0.000388408
0.000429508
0.00049273
0.000179829
0.000155794
0.000257101
0.000327528
0.000364733
0.000425578
0.000164121
0.000116057
0.000187964
0.00025101
0.000288538
0.000326428
2.90296e-05
5.34058e-05
9.28213e-05
0.000144124
0.000186919
0.000179058
8.97477e-07
2.83624e-06
7.56577e-06
1.88898e-05
5.15925e-05
4.68123e-05
0.000468051
0.000787396
0.00090789
0.000961466
0.000972287
0.000979915
0.000992529
0.00101366
0.00104442
0.00108554
0.00113916
0.0012098
0.00130351
0.00142611
0.00158282
0.00177885
0.00202058
0.00231632
0.00267226
0.00305565
0.00344086
0.00380897
0.00413431
0.00434282
0.000691945
0.000854238
0.000920923
0.000942251
0.000955765
0.00097339
0.000999306
0.00103457
0.00108027
0.00113917
0.00121585
0.00131533
0.00144188
0.00159915
0.00179093
0.00202259
0.00230173
0.00263498
0.00302049
0.00341004
0.00379214
0.00413467
0.00443802
0.00460573
0.00080485
0.000888055
0.000916284
0.000932228
0.000953029
0.000982948
0.00102218
0.00107135
0.00113316
0.00121215
0.00131329
0.00144114
0.00159962
0.00179191
0.002021
0.00229013
0.00260208
0.00295643
0.00334481
0.00371964
0.004074
0.00439121
0.00465263
0.00478644
0.000848815
0.000896244
0.000908674
0.000929849
0.000962613
0.00100541
0.00105731
0.00112043
0.00119954
0.00130041
0.00142862
0.00158843
0.00178208
0.00200991
0.00227102
0.00256435
0.00288875
0.0032409
0.00361083
0.00396086
0.00427686
0.00455713
0.00477673
0.00489069
0.000859517
0.000885822
0.00090296
0.000936593
0.000982742
0.00103751
0.00110141
0.00117925
0.00127794
0.00140423
0.00156298
0.0017561
0.00198257
0.00223915
0.00252162
0.00282581
0.00314772
0.00348197
0.00381864
0.00413495
0.00440405
0.00463788
0.00482004
0.00491636
0.000850589
0.00087276
0.000904105
0.000952722
0.00101123
0.00107665
0.00115276
0.00124738
0.00136892
0.00152359
0.00171401
0.00193898
0.00219411
0.00247288
0.00276781
0.00307158
0.00337773
0.0036801
0.00397103
0.00423923
0.00446161
0.00463734
0.0047829
0.00486256
0.000834152
0.000864337
0.000912966
0.000976153
0.0010454
0.00112094
0.00121059
0.00132471
0.00147196
0.00165671
0.00187846
0.00213254
0.0024112
0.00270485
0.0030032
0.00329648
0.00357652
0.00383703
0.00407291
0.00427879
0.00444814
0.00456956
0.00466115
0.00472772
0.000816489
0.000862728
0.00092889
0.00100491
0.00108348
0.00116946
0.00127464
0.001411
0.00158612
0.0018014
0.00205262
0.00233166
0.00262797
0.00292964
0.00322434
0.00350048
0.00374839
0.00396135
0.00413597
0.00427193
0.00437116
0.00443657
0.00446961
0.00449791
0.000801184
0.000867249
0.000950232
0.00103734
0.00112447
0.00122184
0.00134473
0.00150561
0.00170971
0.00195453
0.0022321
0.00253141
0.00283988
0.00314411
0.00343053
0.00368633
0.00390067
0.00406584
0.00417833
0.00424
0.0042588
0.00424534
0.00420045
0.00410178
0.000789696
0.000876069
0.000975457
0.00107232
0.00116781
0.00127779
0.00142037
0.00160733
0.0018404
0.00211272
0.00241288
0.00272774
0.00304358
0.00334632
0.00362196
0.00385734
0.00404106
0.00416445
0.00422231
0.00421392
0.00414321
0.00400758
0.00373248
0.00314794
0.000781847
0.000887849
0.00100357
0.00110912
0.00121301
0.00133679
0.00150055
0.00171434
0.00197548
0.00227253
0.00259122
0.0029172
0.00323638
0.00353476
0.00379864
0.00401533
0.00417396
0.00426603
0.00428555
0.00422876
0.00409418
0.00388402
0.00360257
0.00325352
0.000775672
0.000904189
0.00103422
0.00114725
0.00125959
0.00139803
0.00158381
0.0018245
0.00211221
0.00243084
0.00276402
0.00309704
0.00341616
0.00370797
0.00395954
0.00415922
0.00429749
0.00436754
0.00436533
0.00428923
0.00413977
0.00392082
0.00364403
0.00335369
0.00077083
0.000923684
0.00106669
0.00118624
0.00130692
0.00146036
0.00166827
0.0019355
0.00224807
0.002585
0.00292877
0.00326514
0.00358121
0.00386445
0.00410288
0.00428602
0.00440587
0.00445756
0.00443936
0.00435219
0.00419924
0.00398653
0.00372526
0.00344215
0.000766288
0.000944927
0.00110032
0.00122559
0.00135412
0.00152216
0.00175204
0.00204514
0.00238104
0.00273303
0.00308368
0.00342002
0.00373034
0.00400307
0.00422715
0.00439315
0.0044945
0.00452812
0.00449435
0.00439633
0.00423916
0.00403005
0.00377945
0.00350214
0.000762642
0.000968783
0.00113433
0.00126474
0.00139965
0.00158239
0.00183458
0.00215237
0.00250982
0.00287354
0.0032276
0.00356085
0.00386298
0.00412333
0.00433159
0.00447922
0.00456089
0.00457512
0.00452416
0.00441313
0.00424892
0.00403991
0.00379658
0.00352865
0.000759129
0.000993863
0.00116622
0.00130238
0.00144321
0.00164111
0.00191564
0.0022568
0.00263353
0.00300565
0.00335992
0.0036874
0.00397917
0.00422536
0.00441623
0.004544
0.00460447
0.00459783
0.00452837
0.00440337
0.00423162
0.00402269
0.00378739
0.00353382
0.000755221
0.00102054
0.00120013
0.00133926
0.00148507
0.00169853
0.00199518
0.00235805
0.00275155
0.00312893
0.00348055
0.00379991
0.0040794
0.00430976
0.00448165
0.00458789
0.00462546
0.00459637
0.00450727
0.00436788
0.00418908
0.00398182
0.00375758
0.00352473
0.000749994
0.00104574
0.00123372
0.00137551
0.00152568
0.00175511
0.00207338
0.00245605
0.00286361
0.00324334
0.00358981
0.00389902
0.00416456
0.00437757
0.0045289
0.00461193
0.00462493
0.00457211
0.00446288
0.0043098
0.00412596
0.00392363
0.00371471
0.00350774
0.000742631
0.00107405
0.00127067
0.00141067
0.00156576
0.0018116
0.00215068
0.002551
0.00296975
0.00334917
0.00368833
0.00398567
0.00423582
0.00443013
0.00455944
0.00461771
0.00460481
0.0045276
0.00439881
0.00423409
0.00404864
0.00385545
0.00366587
0.00348757
0.000732089
0.00110375
0.00130958
0.0014438
0.00160642
0.00186901
0.00222773
0.00264336
0.0030702
0.00344698
0.00377695
0.00406099
0.00429458
0.00446901
0.00457506
0.00460734
0.00456773
0.00446637
0.00431976
0.0041467
0.00396391
0.00378405
0.00361663
0.00346729
0.000720554
0.00113574
0.00134878
0.00147815
0.00164966
0.00192865
0.00230537
0.00273384
0.00316536
0.00353748
0.00385664
0.00412623
0.00434234
0.00449601
0.00457786
0.00458338
0.00451696
0.00439266
0.00423109
0.00405383
0.00387809
0.00371489
0.00357077
0.00344863
0.000710096
0.00117373
0.00138459
0.00151677
0.00169773
0.00199199
0.00238451
0.00282299
0.00325623
0.00362147
0.00392839
0.00418266
0.00438069
0.00451305
0.00457018
0.00454873
0.00445621
0.00431114
0.00413826
0.00396116
0.00379625
0.0036517
0.00353039
0.0034324
0.000703736
0.00123689
0.00142191
0.00156382
0.00175306
0.00206052
0.00246599
0.00291136
0.00334348
0.00369957
0.00399311
0.00423154
0.00441123
0.00452211
0.00455448
0.00450652
0.0043894
0.00422647
0.00404628
0.00387332
0.00372188
0.00359649
0.00349627
0.00341886
0.000708694
0.00128931
0.00147504
0.00162492
0.00181778
0.00213518
0.00255018
0.00299913
0.00342741
0.00377225
0.00405163
0.00427404
0.00443551
0.00452518
0.0045333
0.00445995
0.0043204
0.00414296
0.00395932
0.00379358
0.0036569
0.00354988
0.00346835
0.00340794
1.33766e-06
1.26852e-05
4.69542e-05
0.000114074
0.000196264
5.54714e-05
3.8456e-05
8.98135e-05
0.000175703
0.000300476
0.000386918
0.000453976
5.34161e-05
0.000195295
0.000334463
0.000509084
0.000674385
0.000837364
5.9506e-05
0.000294018
0.000484981
0.000701517
0.000920485
0.00113215
6.41702e-05
0.000379699
0.000619459
0.000868953
0.00111995
0.00134138
6.78037e-05
0.000450362
0.000735697
0.00100998
0.00127823
0.00149296
7.06384e-05
0.000506857
0.000833539
0.00112731
0.00140114
0.00160442
7.28205e-05
0.000550498
0.000913625
0.00122308
0.00149512
0.00168792
7.44458e-05
0.000582622
0.000976895
0.00129873
0.00156683
0.001751
7.55778e-05
0.000604348
0.00102439
0.00135601
0.00162068
0.00179843
7.62609e-05
0.000616523
0.00105708
0.00139654
0.00165959
0.00183326
7.65386e-05
0.000619492
0.00107578
0.00142161
0.00168523
0.00185749
7.65139e-05
0.000613048
0.00108108
0.00143203
0.00169897
0.00187309
7.61509e-05
0.00059824
0.00107329
0.0014283
0.00169932
0.00187817
7.54089e-05
0.000576204
0.00105237
0.00141004
0.00168456
0.00187262
7.42382e-05
0.000547693
0.00101795
0.00137493
0.00165352
0.00185403
7.25794e-05
0.00051351
0.000969152
0.00132083
0.0016035
0.00181803
7.03526e-05
0.000473574
0.000904305
0.0012446
0.00152958
0.00175884
6.74471e-05
0.000426734
0.000820675
0.00114173
0.00142504
0.00166626
6.37096e-05
0.000370971
0.000713793
0.00100654
0.00128004
0.00152394
5.89249e-05
0.000302828
0.000577742
0.000831559
0.00108333
0.00130621
5.27766e-05
0.000216237
0.000408896
0.000610209
0.00082334
0.00097267
3.76812e-05
0.000106768
0.000212129
0.000345739
0.000502185
0.000517598
1.19945e-06
1.02597e-05
3.80731e-05
9.49896e-05
0.000196476
5.90667e-05
0.000755116
0.00136917
0.00156456
0.00170288
0.00189215
0.00221563
0.00263657
0.00308593
0.0035079
0.00383976
0.00410461
0.00431125
0.00445501
0.00452419
0.00450913
0.00441209
0.00425276
0.00406423
0.00388042
0.00372386
0.00360191
0.0035115
0.003446
0.00339933
0.00117082
0.00155181
0.00168047
0.00178841
0.00197243
0.00229947
0.00272354
0.00317081
0.00358406
0.00390208
0.00415266
0.00434419
0.00447115
0.00452102
0.00448437
0.00436584
0.00418961
0.00399311
0.00381153
0.00366497
0.00355677
0.00348066
0.00342831
0.00339252
0.00139922
0.00168137
0.00177835
0.00186956
0.00205246
0.00238311
0.00280893
0.00325277
0.00365413
0.00395911
0.00419636
0.00437388
0.00448533
0.00451752
0.00446134
0.00432387
0.00413359
0.00393164
0.00375367
0.00361686
0.00352078
0.00345652
0.00341458
0.00338725
0.00155356
0.00177315
0.00185849
0.00194308
0.00212876
0.00246353
0.00289053
0.00333034
0.00371851
0.00401127
0.00423638
0.00440131
0.00449891
0.00451544
0.00444221
0.00428859
0.00408691
0.00388133
0.00370731
0.0035791
0.00349303
0.00343818
0.0034042
0.00338332
0.00166709
0.00184208
0.00192482
0.00200866
0.00219932
0.00253843
0.0029664
0.00340167
0.00377742
0.00405906
0.0042734
0.00442743
0.00451308
0.00451632
0.00442889
0.00426206
0.00405133
0.00384316
0.00367252
0.00355107
0.00347259
0.00342476
0.00339667
0.00338058
0.00175265
0.00189596
0.00198003
0.0020663
0.00226274
0.00260576
0.00303248
0.00346283
0.003827
0.00410069
0.0043077
0.00445301
0.00452873
0.00452138
0.0044229
0.0042459
0.00402813
0.00381771
0.00364917
0.00353218
0.00345873
0.00341559
0.00339141
0.00337877
0.00181865
0.00193886
0.00202589
0.002116
0.00231783
0.00266257
0.00308725
0.00351267
0.00386669
0.00413363
0.00433479
0.00447483
0.00454538
0.00453136
0.00442539
0.00424128
0.00401819
0.00380529
0.00363708
0.00352212
0.00345081
0.00340984
0.00338845
0.00337773
0.00187032
0.00197322
0.0020636
0.00215763
0.00236309
0.00270746
0.00313047
0.00355379
0.00390161
0.00416433
0.00436164
0.00449756
0.00456389
0.00454597
0.00443606
0.00424814
0.00402155
0.00380594
0.00363595
0.00352012
0.00344797
0.00340783
0.00338725
0.0033773
0.00191109
0.00200058
0.00209389
0.00219071
0.00239699
0.00274207
0.00316659
0.00359115
0.0039374
0.00420029
0.00439796
0.00453379
0.0045982
0.00457707
0.00446314
0.00427088
0.00404001
0.0038201
0.00364595
0.00352662
0.00345206
0.0034098
0.00338796
0.00337739
0.00194328
0.00202196
0.00211682
0.00221504
0.00242362
0.00277056
0.00319703
0.00362387
0.00397
0.0042338
0.00443188
0.00456658
0.00462947
0.00460773
0.00449514
0.00430412
0.00407209
0.00384781
0.00366736
0.00354158
0.00346259
0.00341554
0.00339054
0.00337798
0.00196831
0.00203827
0.00213401
0.0022334
0.0024416
0.00278735
0.00321382
0.00364243
0.0039909
0.00425777
0.00445823
0.0045954
0.00466172
0.00464456
0.0045369
0.00434981
0.00411815
0.00388932
0.00370068
0.00356572
0.00347852
0.00342591
0.00339531
0.00337916
0.00198786
0.00205015
0.00214406
0.00224233
0.00244735
0.00278972
0.00321567
0.00364738
0.00400166
0.0042751
0.00448183
0.00462482
0.00469717
0.00468707
0.00458728
0.00440694
0.00417764
0.00394467
0.00374647
0.00359981
0.00350158
0.00343985
0.00340269
0.00338125
0.0020013
0.00205854
0.00214608
0.00224268
0.00244264
0.00278003
0.00320504
0.00364096
0.0040043
0.00428715
0.00450267
0.00465395
0.00473481
0.0047343
0.00464512
0.00447432
0.00424973
0.00401371
0.0038053
0.00364483
0.0035328
0.00345921
0.00341271
0.00338423
0.00200896
0.00206318
0.00214154
0.00223512
0.00242789
0.00275843
0.00318176
0.00362259
0.00399792
0.00429289
0.00451978
0.0046818
0.00477357
0.00478506
0.00470899
0.00455042
0.00433316
0.00409592
0.00387752
0.00370171
0.00357325
0.00348487
0.0034263
0.0033885
0.00201003
0.00206358
0.00213159
0.00222043
0.00240377
0.00272531
0.00314581
0.00359181
0.00398164
0.00429129
0.00453204
0.00470722
0.00481221
0.00483791
0.00477722
0.0046334
0.00442625
0.00419029
0.0039631
0.00377128
0.00362414
0.00351797
0.0034443
0.0033944
0.0020029
0.00205902
0.00211676
0.00219933
0.0023711
0.00268132
0.00309739
0.00354828
0.00395456
0.00428118
0.00453818
0.00472886
0.00484927
0.00489124
0.00484794
0.00472114
0.00452688
0.00429518
0.00406141
0.00385397
0.00368658
0.00355975
0.00346764
0.00340235
0.00198481
0.00204821
0.0020971
0.00217236
0.00233082
0.00262736
0.00303699
0.00349187
0.00391585
0.00426135
0.00453679
0.00474518
0.00488313
0.00494328
0.00491915
0.00481133
0.00463256
0.00440835
0.00417102
0.00394951
0.00376127
0.00361131
0.00349729
0.00341279
0.00195143
0.00202894
0.00207208
0.0021398
0.00228388
0.00256456
0.00296543
0.00342277
0.0038647
0.00423053
0.00452635
0.00475454
0.00491201
0.00499209
0.0049887
0.00490152
0.00474051
0.00452697
0.00428963
0.0040567
0.0038482
0.00367344
0.00353402
0.00342608
0.00189698
0.0019977
0.00204031
0.00210152
0.00223116
0.00249428
0.00288393
0.00334157
0.00380028
0.00418742
0.00450529
0.00475517
0.00493401
0.00503567
0.00505439
0.00498923
0.00484786
0.00464786
0.00441419
0.00417327
0.00394633
0.00374616
0.00357833
0.0034424
0.00181201
0.00194864
0.00199921
0.00205684
0.00217335
0.00241804
0.00279422
0.00324988
0.00372078
0.00413067
0.00447212
0.00474536
0.00494724
0.00507197
0.00511406
0.00507206
0.00495181
0.00476772
0.00454112
0.00429598
0.00405343
0.0038285
0.00363029
0.00346205
0.00168009
0.00187355
0.0019449
0.0020045
0.00211088
0.00233737
0.0026981
0.00314896
0.00362767
0.00406003
0.00442578
0.00472359
0.00494991
0.00509904
0.00516559
0.0051477
0.0050497
0.00488334
0.00466668
0.00442092
0.00416612
0.00391826
0.00368894
0.00348476
0.00146942
0.001764
0.00187235
0.00194266
0.00204381
0.00225374
0.00259758
0.00304052
0.00352349
0.00397608
0.00436572
0.00468867
0.00494041
0.00511501
0.005207
0.005214
0.00513908
0.00499175
0.00478719
0.00454388
0.00428019
0.00401198
0.00375224
0.00350982
0.00111461
0.00159276
0.00177247
0.00186823
0.0019717
0.00216843
0.00249493
0.002927
0.0034105
0.00387978
0.00429187
0.00463974
0.00491738
0.00511823
0.00523641
0.00526895
0.00521772
0.0050903
0.00489936
0.00466082
0.00439112
0.00410534
0.00381685
0.00353569
0.000552844
0.00127719
0.00163325
0.0017778
0.00189408
0.00208272
0.00239251
0.00281112
0.00329115
0.00377254
0.00420458
0.00457636
0.00487979
0.00510724
0.00525213
0.00531072
0.00528365
0.00517674
0.00500044
0.00476827
0.0044947
0.00419369
0.00387845
0.00355978
2.00338e-06
5.65213e-06
1.04148e-05
1.6895e-05
2.76856e-05
0.000107678
4.84912e-05
6.29081e-05
7.92093e-05
0.000102123
0.000131584
0.000221176
5.70938e-05
9.77861e-05
0.000141899
0.000176795
0.000224635
0.000319363
6.12457e-05
0.000121811
0.000196614
0.000240576
0.000301534
0.000392732
6.40345e-05
0.000149627
0.000248252
0.000301223
0.000367569
0.000447709
6.61335e-05
0.000180918
0.000298693
0.00036029
0.000424589
0.000491165
6.78335e-05
0.000214572
0.000347071
0.00041558
0.000474343
0.000526658
6.92513e-05
0.000249222
0.000392425
0.000465738
0.000517842
0.000556039
7.0441e-05
0.000283312
0.000433656
0.000510344
0.000555024
0.000581174
7.14352e-05
0.000315065
0.000469864
0.000548457
0.00058653
0.000604624
7.22584e-05
0.000342534
0.000500411
0.000580295
0.000613927
0.000628434
7.2933e-05
0.000363686
0.000524866
0.000606929
0.000639571
0.000653097
7.3483e-05
0.000376471
0.000542862
0.000629697
0.000665126
0.000679355
7.37128e-05
0.000382306
0.000554322
0.000649321
0.000691144
0.000708508
7.36219e-05
0.00038189
0.000559079
0.000665237
0.000717394
0.000741025
7.31183e-05
0.000374777
0.000556208
0.000675992
0.00074263
0.000777579
7.21664e-05
0.000359557
0.000544193
0.000679083
0.000763911
0.000817456
7.06947e-05
0.000336177
0.000520629
0.000670817
0.000775568
0.000852372
6.85823e-05
0.000302643
0.000483981
0.000646042
0.000769593
0.000871756
6.57243e-05
0.000258379
0.000431146
0.000599704
0.000735891
0.000862585
6.18115e-05
0.000202495
0.00035964
0.000525084
0.000661952
0.00080488
5.6235e-05
0.000135791
0.000267936
0.000415967
0.000533336
0.000668797
4.36416e-05
6.4643e-05
0.000156509
0.000269916
0.000356775
0.000392622
2.06212e-06
1.69378e-05
5.74479e-05
0.00011216
0.000174913
5.0663e-05
0.000480769
0.00108173
0.00149559
0.00168343
0.0018152
0.0019991
0.0022929
0.00269564
0.00316802
0.00365607
0.00410461
0.00449844
0.00482691
0.00508088
0.00525274
0.00533772
0.0053352
0.00524927
0.00508829
0.00486355
0.00458753
0.00427282
0.00393233
0.00357845
0.000472853
0.00100281
0.00138779
0.0015961
0.00173969
0.00191987
0.00219805
0.00258276
0.00304336
0.00353221
0.00399301
0.00440625
0.00475836
0.00503828
0.00523706
0.00534866
0.00537103
0.00530653
0.00516146
0.00494493
0.00466731
0.00433959
0.0039742
0.0035873
0.000478947
0.000924848
0.00131915
0.00151824
0.00166929
0.00184582
0.00210868
0.0024737
0.00291875
0.0034026
0.00387095
0.00430033
0.00467408
0.00497897
0.00520435
0.00534267
0.00539028
0.00534771
0.00521922
0.00501163
0.00473304
0.00439238
0.00400109
0.00358178
0.000493924
0.000882509
0.00126462
0.00144949
0.00160413
0.0017765
0.00202437
0.0023686
0.00279496
0.00326853
0.00373955
0.00418136
0.00457435
0.00490286
0.00515431
0.00531941
0.00539272
0.00537281
0.00526176
0.00506402
0.00478517
0.00443141
0.00401207
0.00355803
0.000515343
0.000853556
0.00120413
0.00139179
0.0015438
0.00171103
0.00194414
0.00226693
0.00267208
0.00313089
0.0035998
0.00405015
0.00445964
0.00481025
0.00508724
0.00527935
0.00537915
0.00538305
0.00529081
0.00510433
0.00482627
0.00445935
0.00400897
0.00351394
0.000539859
0.000831194
0.00114739
0.0013431
0.00148868
0.00164805
0.00186675
0.00216777
0.00254977
0.00299017
0.00345253
0.00390744
0.00433063
0.00470179
0.00500401
0.00522389
0.00535177
0.00538172
0.0053109
0.00513831
0.00486319
0.00448367
0.00399856
0.00345053
0.00056515
0.000813226
0.00109894
0.00130114
0.00143834
0.00158824
0.00179045
0.00206945
0.00242727
0.00284656
0.00329829
0.00375388
0.00418789
0.00457819
0.00490582
0.00515522
0.00531443
0.00537504
0.00533138
0.00517914
0.00491329
0.00452556
0.00400343
0.00337973
0.000589852
0.000798874
0.0010601
0.0012605
0.0013895
0.00153081
0.00171628
0.00197185
0.00230362
0.00269987
0.00313735
0.00358974
0.0040316
0.00443967
0.00479339
0.00507537
0.0052717
0.00537184
0.00536785
0.00525281
0.00501862
0.00465255
0.00412902
0.00340527
0.000613421
0.000787648
0.0010279
0.00121836
0.00134327
0.0014756
0.0016443
0.00187574
0.00217987
0.00255057
0.00297002
0.00341505
0.00386132
0.00428537
0.00466585
0.00498432
0.00522599
0.00537982
0.00543834
0.00539767
0.00526083
0.00504955
0.00482484
0.0046753
0.000636012
0.000779046
0.000999559
0.00117686
0.00129901
0.00142234
0.00157461
0.0017817
0.00205693
0.00239942
0.00279679
0.00322978
0.00367616
0.00411337
0.00452025
0.00487846
0.00517367
0.00539631
0.00554183
0.00561106
0.0056123
0.00556609
0.00550848
0.00547778
0.000658241
0.000773341
0.000975198
0.00113751
0.00125641
0.00137087
0.00150726
0.00169027
0.00193574
0.00224752
0.00261862
0.00303427
0.00347543
0.0039215
0.0043525
0.00475092
0.00510313
0.00540025
0.00563813
0.0058169
0.00594081
0.00601899
0.00606605
0.00609542
0.00068078
0.000773137
0.000953736
0.00109993
0.00121549
0.00132115
0.00144237
0.00160199
0.00181737
0.00209635
0.00243705
0.00282971
0.00325933
0.00370835
0.00415887
0.00459455
0.00500177
0.00537004
0.00569161
0.00596083
0.00617456
0.00633124
0.0064397
0.00650312
0.000706298
0.000778997
0.000934984
0.0010667
0.00117683
0.0012734
0.00138014
0.00151741
0.00170301
0.00194773
0.00225434
0.00261822
0.00302915
0.00347353
0.00393637
0.00440273
0.00485827
0.00528912
0.0056815
0.00602252
0.00629812
0.00650522
0.00666046
0.00673896
0.000733968
0.000793852
0.000921984
0.00103906
0.00114097
0.00122797
0.00132083
0.00143712
0.00159387
0.00180374
0.00207333
0.00240294
0.00278752
0.00321814
0.00368346
0.00417038
0.00466376
0.00514572
0.00559607
0.00599269
0.00631265
0.00656607
0.00674811
0.0068394
0.00076486
0.000810065
0.000919254
0.00101844
0.00110694
0.00118484
0.00126474
0.00136164
0.00149112
0.00166654
0.00189728
0.00218794
0.00253853
0.00294521
0.00340098
0.00389534
0.00441306
0.00493303
0.00542936
0.00586381
0.0062276
0.00651761
0.00672073
0.006823
0.000801824
0.000836942
0.00091989
0.00100138
0.0010774
0.00114499
0.00121241
0.00129151
0.00139578
0.00153818
0.00172963
0.00197798
0.00228773
0.0026601
0.00309289
0.00357923
0.00410524
0.00464813
0.00517772
0.00564122
0.00604224
0.00636349
0.00658792
0.00670053
0.000852357
0.000878517
0.000934319
0.000995036
0.00105489
0.00111007
0.00116479
0.00122742
0.00130877
0.00142045
0.00157364
0.00177813
0.00204183
0.00237042
0.00276662
0.00322815
0.0037443
0.00429295
0.0048415
0.00532797
0.00575932
0.00610689
0.00635538
0.00647876
0.000904755
0.000929279
0.000967334
0.00100308
0.00104271
0.00108259
0.00112352
0.00117039
0.00123098
0.00131479
0.0014321
0.00159325
0.00180812
0.00208567
0.00243298
0.00285285
0.00333961
0.00387477
0.00442679
0.00492708
0.00538101
0.00574948
0.00602647
0.00616208
0.000946008
0.000982329
0.00101266
0.00102581
0.00104366
0.00106556
0.00109099
0.00112204
0.00116354
0.00122243
0.00130722
0.00142751
0.00159361
0.00181617
0.00210533
0.00246853
0.00290618
0.00340629
0.00394221
0.00444554
0.00490918
0.00529368
0.00559992
0.00575188
0.000964558
0.00102326
0.00105825
0.00105719
0.00105655
0.0010604
0.00106936
0.00108432
0.00110786
0.0011445
0.00120057
0.00128399
0.00140415
0.0015717
0.00179805
0.00209374
0.00246483
0.00290743
0.00340311
0.00389641
0.00435604
0.00475717
0.00507654
0.00525787
0.000946553
0.00103648
0.00108639
0.00108345
0.00107303
0.00106344
0.00105788
0.00105777
0.00106481
0.0010818
0.00111305
0.00116446
0.00124365
0.00135994
0.00152416
0.00174778
0.00204048
0.00240567
0.00283453
0.00329702
0.00372906
0.00413324
0.00445199
0.0046723
0.000882063
0.00101142
0.00108027
0.00108885
0.00107991
0.00106534
0.00105081
0.00103929
0.00103277
0.00103338
0.00104403
0.00106885
0.00111343
0.00118507
0.00129278
0.00144691
0.00165795
0.00193369
0.00227451
0.00266887
0.00306714
0.00343856
0.00375915
0.00399149
0.000768635
0.00095297
0.00104259
0.00106528
0.00106634
0.00105571
0.00103964
0.00102245
0.00100702
0.000995593
0.000990461
0.000994508
0.00101161
0.00104698
0.0011073
0.0012007
0.00133616
0.0015222
0.00176364
0.00205934
0.00239491
0.00271895
0.00301427
0.00323864
0.000579832
0.000850368
0.000962291
0.00102353
0.00103219
0.00102835
0.00101775
0.00100095
0.000981989
0.000963563
0.000947873
0.000937141
0.00093404
0.000942054
0.000965716
0.0010107
0.00108357
0.00119101
0.00133854
0.00152742
0.00175434
0.00200814
0.00224975
0.00244716
7.04563e-07
3.00017e-06
9.58483e-06
2.17209e-05
4.06124e-05
8.86138e-05
2.68205e-05
5.77808e-05
0.000102949
0.000153486
0.000211251
0.000282744
0.00015518
0.0001361
0.000219968
0.000306751
0.00039467
0.00048072
0.000172137
0.000203321
0.000322023
0.000437904
0.000547386
0.000644364
0.000185251
0.000255613
0.000405469
0.000544374
0.000669404
0.00077563
0.000194279
0.000293615
0.000472712
0.000630046
0.000766828
0.000880446
0.00019924
0.000318913
0.00052595
0.000698281
0.000844514
0.000964703
0.000200916
0.00033639
0.000567424
0.000751402
0.000904935
0.0010313
4.74487e-05
0.000350429
0.000599038
0.000791332
0.000950124
0.00108135
4.79265e-05
0.000363484
0.000621905
0.000819294
0.000981282
0.00111575
4.84627e-05
0.000372975
0.000636492
0.000836009
0.00099907
0.00113484
4.88655e-05
0.000378563
0.000642976
0.000841882
0.00100387
0.00113882
4.90592e-05
0.000380022
0.000641376
0.000837148
0.000995987
0.00112796
4.90181e-05
0.000377067
0.000631559
0.000821962
0.000975764
0.00110289
4.87444e-05
0.00036955
0.000613503
0.00079644
0.000943643
0.00106458
4.82725e-05
0.000357334
0.000586941
0.000760649
0.00090011
0.00101426
4.7697e-05
0.000340233
0.000551551
0.000714527
0.000845556
0.000953163
4.71255e-05
0.000318091
0.000506818
0.000657774
0.000780093
0.000882158
0.00019718
0.000290993
0.000451918
0.000589675
0.000703237
0.000801322
0.000189797
0.000251115
0.000385557
0.000508844
0.000613595
0.000709358
0.000177275
0.000198705
0.000306172
0.000412874
0.000508502
0.000603287
0.000160401
0.00013363
0.000211993
0.000297975
0.000383643
0.000480746
2.78693e-05
5.84481e-05
0.000103536
0.00016141
0.000232681
0.000334488
7.49649e-07
3.1335e-06
1.09272e-05
2.93656e-05
6.89963e-05
0.000165663
0.000488593
0.000750528
0.000877212
0.000936976
0.000987895
0.000993368
0.000985942
0.000973485
0.000955486
0.000934846
0.000913734
0.000894058
0.000877788
0.000867215
0.000865039
0.000875176
0.000900547
0.00094287
0.00100888
0.00110057
0.00121852
0.00136114
0.00152333
0.00167763
0.000516001
0.000701496
0.000815229
0.000886113
0.000920467
0.000952896
0.000958667
0.000950049
0.000935954
0.000917318
0.000895711
0.000872666
0.000849783
0.000828989
0.0008114
0.000796614
0.000788408
0.00079037
0.000802559
0.000826444
0.000862492
0.00091206
0.000969139
0.00105873
0.000624272
0.000737109
0.000814081
0.000872143
0.000910866
0.000931704
0.000948644
0.000952891
0.000947498
0.000937069
0.000922518
0.000905132
0.000886235
0.000867059
0.000849025
0.000833487
0.000819752
0.000808623
0.00080075
0.000797199
0.000797226
0.000805104
0.000810758
0.000840645
0.00075484
0.000835253
0.000884261
0.000922963
0.000954153
0.000976903
0.000997153
0.001006
0.00101688
0.00102213
0.00102426
0.00102485
0.00102519
0.00102638
0.00102922
0.00103402
0.00104046
0.00104801
0.00105597
0.0010645
0.00107303
0.00108417
0.00109212
0.00111212
0.000879065
0.000952682
0.000996399
0.00102592
0.00105133
0.00107467
0.00109762
0.00111919
0.00114245
0.00116588
0.00118994
0.00121483
0.001242
0.00127226
0.00130566
0.00134177
0.00137976
0.00141816
0.00145512
0.00148876
0.00151991
0.00155182
0.0015839
0.00161832
0.000986984
0.00106485
0.00111421
0.00114759
0.0011747
0.00120024
0.00122705
0.00125677
0.0012898
0.00132598
0.00136562
0.00140941
0.00145684
0.00150713
0.00155918
0.00161171
0.00166349
0.0017135
0.00175971
0.00179953
0.00183571
0.00187234
0.0019078
0.00193885
0.00107647
0.00116419
0.00122433
0.00126669
0.0012998
0.00133032
0.00136121
0.00139455
0.00143172
0.00147279
0.0015177
0.00156611
0.00161727
0.00167018
0.00172371
0.00177674
0.00182823
0.00187725
0.0019224
0.00196203
0.00199944
0.00203426
0.00206584
0.00208706
0.00115021
0.00124709
0.00131919
0.00137413
0.00141771
0.00145488
0.0014901
0.00152563
0.00156358
0.00160591
0.00165172
0.00170012
0.00175056
0.00180198
0.00185326
0.0019034
0.00195164
0.00199638
0.00203919
0.00207985
0.00211649
0.00214873
0.0021733
0.00218801
0.00120721
0.00131516
0.00139759
0.00146221
0.00151609
0.00156267
0.00160519
0.00164605
0.00168591
0.00172457
0.00176435
0.00180587
0.00184838
0.00189075
0.00193147
0.00196914
0.00200286
0.00203094
0.00205137
0.00206413
0.00206959
0.0020692
0.00206083
0.00204757
0.00124691
0.00136427
0.00145836
0.00153463
0.00159709
0.00164977
0.00169595
0.00173822
0.00177845
0.0018175
0.00185442
0.00188831
0.00191773
0.00194182
0.00195993
0.00197091
0.00197391
0.00196858
0.00195555
0.00193759
0.00191754
0.00190086
0.00189008
0.00188372
0.00126897
0.00139304
0.00149616
0.00158247
0.00165511
0.00171679
0.00176962
0.00181515
0.00185435
0.00188783
0.00191585
0.00193815
0.00195427
0.00196334
0.00196461
0.0019579
0.00194326
0.00192137
0.00189296
0.00185975
0.00182395
0.00178561
0.00176181
0.00175125
0.00127315
0.00140068
0.00150945
0.00160262
0.00168247
0.00175082
0.00180902
0.00185799
0.00189827
0.00193004
0.00195318
0.00196733
0.00197208
0.00196715
0.00195257
0.00192904
0.00189742
0.00185816
0.00181201
0.00176237
0.00171157
0.00166154
0.00162574
0.00161672
0.00125974
0.00138764
0.0014987
0.00159509
0.00167848
0.00175016
0.00181099
0.00186142
0.00190158
0.0019314
0.00195069
0.0019592
0.00195717
0.00194483
0.0019223
0.00189266
0.00185708
0.00180995
0.00175374
0.00168825
0.00162434
0.00157467
0.00153554
0.00151199
0.00122985
0.00135603
0.00146691
0.00156352
0.00164716
0.00171894
0.00177953
0.00182924
0.00186805
0.00189603