/*--------------------------------*- C++ -*----------------------------------*\
  =========                 |
  \\      /  F ield         | OpenFOAM: The Open Source CFD Toolbox
   \\    /   O peration     | Website:  https://openfoam.org
    \\  /    A nd           | Version:  11
     \\/     M anipulation  |
\*---------------------------------------------------------------------------*/
FoamFile
{
    format      ascii;
    class       volScalarField;
    location    "1.22";
    object      epsilon;
}
// * * * * * * * * * * * * * * * * * * * * * * * * * * * * * * * * * * * * * //

dimensions      [0 2 -3 0 0 0 0];

internalField   nonuniform List<scalar> 
2880
(
3.68222
3.9043
4.26788
3.56002
2.69975
2.43129
1.24426
2.10898
2.31591
2.14966
1.79592
2.18579
1.74914
2.05848
2.12036
1.97916
1.71169
2.01459
2.27779
2.22203
2.16591
1.98937
1.76242
1.97767
2.72807
2.37841
2.25325
2.06891
1.87167
2.00831
3.11195
2.49047
2.33778
2.17502
2.01738
2.10219
3.44088
2.56354
2.41597
2.29492
2.18948
2.25224
3.72217
2.61059
2.49095
2.42408
2.37952
2.44864
3.9604
2.64369
2.56571
2.55908
2.57912
2.6822
4.15959
2.67235
2.64154
2.69531
2.78232
2.941
4.32465
2.7038
2.71744
2.8295
2.98234
3.20729
4.45117
2.74091
2.79267
2.95587
3.1678
3.45929
4.50557
2.77746
2.86552
3.06979
3.32785
3.67489
4.49027
2.81082
2.9347
3.16799
3.45383
3.83631
4.39612
2.83992
3.00026
3.24913
3.54074
3.92632
4.22158
2.8648
3.06373
3.31463
3.58967
3.94539
3.96513
2.88672
3.12775
3.36997
3.60834
3.90452
3.62601
2.90863
3.19685
3.42532
3.60998
3.81211
3.20595
2.93627
3.27945
3.4956
3.61905
3.69759
2.71185
2.98128
3.3912
3.60396
3.67541
3.62309
2.16081
3.05893
3.55688
3.79012
3.84967
3.65022
1.56346
3.20648
3.8576
4.15372
4.26481
4.03515
1.08761
3.64611
4.60681
4.97412
5.18243
5.23979
2.80446
5.80356
7.63768
7.74432
6.97912
6.22668
13.2113
9.85547
6.25078
3.89365
2.31047
1.28836
0.685892
0.360431
0.193747
0.109198
0.0651756
0.041174
0.0273877
0.0190592
0.0137921
0.0103213
0.00794573
0.00625846
0.00501156
0.00404448
0.00324381
0.00252469
0.00182032
0.000990979
9.16693
9.23121
6.9557
4.45669
2.74021
1.58848
0.874775
0.469635
0.254193
0.142695
0.0843866
0.0527784
0.0348093
0.0240763
0.0173598
0.0129745
0.00999694
0.007897
0.00635493
0.00516577
0.00418643
0.00330664
0.00241957
0.00129293
6.08946
8.11017
6.9477
4.83052
3.12997
1.9009
1.09028
0.603198
0.331716
0.186771
0.109883
0.0681494
0.0445744
0.0306282
0.0219922
0.0164118
0.0126621
0.0100478
0.00815613
0.00672852
0.0055906
0.00461834
0.00376988
0.00326069
4.17711
7.11198
6.70448
5.11687
3.46825
2.20917
1.32513
0.760652
0.428596
0.243922
0.143534
0.0885198
0.0574658
0.0392153
0.0280173
0.0208565
0.0161022
0.0128407
0.0105434
0.00889716
0.00771236
0.00688397
0.0064238
0.0065016
3.27415
6.27429
6.22888
5.21784
3.73138
2.49562
1.5691
0.938896
0.54592
0.316499
0.187466
0.115414
0.0744849
0.050476
0.03584
0.0265658
0.0204811
0.0163794
0.0135766
0.0116807
0.0104664
0.00981464
0.00970102
0.0100758
2.98884
5.54383
5.73834
5.15234
3.89784
2.74125
1.80976
1.13236
0.683144
0.406315
0.243894
0.150635
0.0968938
0.0652403
0.0459946
0.0338839
0.0260243
0.0208155
0.0173559
0.0151295
0.0138327
0.0132859
0.013379
0.0139094
2.93331
4.99806
5.34006
5.00315
4.02189
2.94672
2.03639
1.33322
0.837557
0.51408
0.314816
0.196179
0.126238
0.0845847
0.0591986
0.0432828
0.0330424
0.0263511
0.0220026
0.0192963
0.017806
0.0172588
0.0174462
0.0180742
2.99651
4.6525
5.04554
4.78193
4.0293
3.09398
2.23688
1.53216
1.00415
0.638826
0.40154
0.254016
0.164308
0.109871
0.0764084
0.0554114
0.0419668
0.0332635
0.0276804
0.0242587
0.0224022
0.0217223
0.0219137
0.0225868
3.1532
4.50313
4.87494
4.61256
3.98905
3.18485
2.40205
1.71921
1.17604
0.777635
0.504182
0.325738
0.212996
0.142735
0.0988647
0.0711501
0.0533984
0.0419476
0.0346339
0.0301538
0.0276865
0.0266998
0.026799
0.0274555
3.38226
4.51791
4.85098
4.5514
3.94359
3.23348
2.52886
1.88544
1.3449
0.925514
0.621173
0.412066
0.274006
0.184992
0.128101
0.0916614
0.0681651
0.0529662
0.0432287
0.037206
0.0337886
0.0322598
0.0321268
0.0327032
3.65755
4.6193
4.91966
4.59216
3.93173
3.2619
2.6225
2.02608
1.50275
1.07616
0.749333
0.51253
0.348523
0.238448
0.1659
0.118427
0.087388
0.0671183
0.0540074
0.0457673
0.0409245
0.0385252
0.0379375
0.0383746
3.94525
4.79509
5.09535
4.75134
3.9885
3.30129
2.69632
2.14243
1.64509
1.22239
0.883727
0.625095
0.436757
0.30457
0.214143
0.153231
0.11254
0.0855213
0.0677697
0.0563813
0.0494462
0.0457068
0.0443535
0.0445354
4.20538
4.99486
5.34518
5.0384
4.18286
3.39895
2.77754
2.24512
1.7722
1.36056
1.01836
0.745984
0.537443
0.383972
0.274458
0.198014
0.145441
0.109686
0.0856723
0.0698804
0.0599191
0.0541705
0.0515992
0.0513039
4.40377
5.17654
5.60239
5.38002
4.54441
3.6137
2.90825
2.35655
1.89236
1.49117
1.1502
0.870384
0.647659
0.4759
0.347723
0.25454
0.188128
0.141531
0.109329
0.0875167
0.0732431
0.0645257
0.0600688
0.0589023
4.50212
5.28758
5.80086
5.7017
5.00536
3.98103
3.14406
2.51712
2.02705
1.62238
1.2813
0.996727
0.764186
0.578319
0.433629
0.323909
0.242524
0.183265
0.140854
0.111099
0.090831
0.0777796
0.070417
0.06777
4.50211
5.29247
5.87462
5.93106
5.44666
4.46387
3.52477
2.782
2.21833
1.77838
1.42223
1.12899
0.887369
0.68994
0.531325
0.406448
0.310086
0.237093
0.18276
0.143077
0.114828
0.0956012
0.0838127
0.0786736
4.38975
5.15531
5.78373
6.00714
5.72679
4.94951
4.01378
3.18099
2.51633
2.00266
1.60203
1.28311
1.02476
0.813721
0.641676
0.502745
0.392024
0.305054
0.23775
0.186497
0.148261
0.120686
0.102315
0.0929978
4.16941
4.85888
5.51334
5.86349
5.78045
5.28121
4.48579
3.66289
2.93253
2.33511
1.86318
1.49267
1.19905
0.963296
0.772286
0.617069
0.491247
0.38989
0.308946
0.244986
0.19513
0.15709
0.129504
0.113261
3.86515
4.42405
5.0541
5.48424
5.59331
5.34368
4.78716
4.09264
3.39134
2.75881
2.22554
1.79209
1.44489
1.1672
0.944114
0.76387
0.617607
0.498698
0.402099
0.323872
0.260885
0.210634
0.17135
0.14409
3.51884
3.88753
4.43729
4.9098
5.1505
5.11723
4.81465
4.32167
3.74844
3.16934
2.63442
2.16775
1.77462
1.44997
1.18454
0.968295
0.792083
0.648221
0.530516
0.43405
0.354982
0.29022
0.237481
0.193935
3.17525
3.30733
3.73975
4.19332
4.5077
4.63004
4.54588
4.26969
3.87077
3.42161
2.96184
2.52542
2.13077
1.78544
1.48988
1.24051
1.03193
0.858226
0.713859
0.593831
0.494101
0.410707
0.342923
0.277634
2.85633
2.75136
3.0447
3.42894
3.75913
3.96221
4.01815
3.93301
3.71857
3.41699
3.07932
2.73184
2.39274
2.07569
1.78831
1.53347
1.31095
1.11865
0.953604
0.812375
0.692303
0.588802
0.505645
0.416838
2.58302
2.27097
2.42978
2.72176
3.00934
3.23078
3.3528
3.37262
3.30119
3.14665
2.9387
2.70032
2.45092
2.20318
1.96591
1.74521
1.54408
1.36356
1.20245
1.05877
0.932161
0.819717
0.728417
0.628475
2.32932
1.88836
1.94586
2.14841
2.36682
2.55232
2.67806
2.73842
2.73509
2.6771
2.56935
2.4315
2.27535
2.1106
1.94481
1.78326
1.63022
1.48882
1.3621
1.24991
1.15018
1.05897
0.98034
0.901538
1.62889
2.12476
3.90323
5.30567
5.97245
6.13204
0.762157
1.35967
2.22333
2.75881
2.99061
2.8341
0.217447
1.12507
1.63118
1.92273
2.03672
1.94597
0.246154
1.00047
1.34532
1.53661
1.61005
1.57406
0.267314
0.917019
1.17115
1.3181
1.38346
1.38724
0.280783
0.863859
1.05403
1.17905
1.25257
1.28606
1.24894
0.829465
0.971831
1.08526
1.16915
1.23106
1.32904
0.804705
0.911801
1.01948
1.11415
1.20047
1.38881
0.786581
0.866625
0.971072
1.0758
1.18369
1.42847
0.772861
0.831715
0.933519
1.04678
1.17366
1.44767
0.762179
0.804056
0.902633
1.02228
1.16539
1.44696
0.753966
0.781628
0.875602
0.999057
1.15543
1.42706
0.748666
0.763099
0.850444
0.974974
1.14173
1.3967
0.747216
0.74757
0.82572
0.948764
1.12367
1.35375
0.745868
0.73356
0.800871
0.91998
1.10222
1.29662
0.739876
0.719184
0.775872
0.889069
1.08064
1.22363
0.721002
0.702526
0.751098
0.857511
1.06613
0.280667
0.665069
0.682188
0.728045
0.82842
1.06692
0.275294
0.600418
0.662553
0.708684
0.805815
1.09172
0.265802
0.558754
0.652875
0.698747
0.795088
1.15252
0.250534
0.551525
0.664054
0.709418
0.804859
1.25238
0.22943
0.60038
0.723188
0.769451
0.853821
1.38061
0.863252
0.861955
0.946391
0.997019
1.02698
1.59305
2.114
2.195
2.18522
2.18282
1.85853
1.85286
1.9522
1.59993
1.60827
1.74247
1.89267
2.02142
2.11224
2.16207
2.17469
2.15253
2.09912
2.02461
1.93622
1.84001
1.74097
1.643
1.54891
1.46056
1.37901
1.30644
1.24478
1.1954
1.15677
1.12855
1.64556
1.41278
1.40981
1.50624
1.61009
1.68888
1.73469
1.75259
1.74573
1.71899
1.67725
1.62578
1.56918
1.51118
1.45473
1.40201
1.35454
1.31324
1.27837
1.24942
1.22565
1.2061
1.19128
1.18483
1.46182
1.31164
1.32131
1.40724
1.49381
1.54864
1.57207
1.56974
1.5441
1.50279
1.45211
1.39738
1.34263
1.29079
1.24399
1.20369
1.17071
1.14537
1.12757
1.11689
1.11184
1.11018
1.11025
1.11253
1.35438
1.27171
1.30195
1.393
1.48055
1.53178
1.55053
1.54162
1.50878
1.46079
1.40473
1.34608
1.28881
1.23558
1.18806
1.14726
1.11357
1.08683
1.06641
1.05123
1.03988
1.03091
1.02347
1.01838
1.29929
1.27042
1.33848
1.45627
1.56572
1.63288
1.65976
1.65438
1.62071
1.56906
1.50768
1.44275
1.37852
1.31776
1.26214
1.2125
1.16913
1.13194
1.10055
1.07439
1.05282
1.03537
1.02187
1.012
1.27875
1.30534
1.42461
1.58869
1.73985
1.84265
1.89162
1.90108
1.8759
1.8273
1.76546
1.6975
1.62803
1.56002
1.49529
1.43482
1.37902
1.32797
1.28158
1.23975
1.20271
1.17126
1.14637
1.1271
1.27949
1.36838
1.55059
1.77882
1.98802
2.13819
2.21816
2.24493
2.22922
2.18361
2.12335
2.05405
1.98102
1.9079
1.83683
1.76893
1.70465
1.64409
1.58718
1.53397
1.48494
1.44148
1.40498
1.37295
1.29618
1.45097
1.7083
2.01662
2.29468
2.49156
2.59645
2.63269
2.61211
2.55315
2.46844
2.37539
2.28245
2.19286
2.10787
2.02778
1.95227
1.88075
1.81248
1.74685
1.68374
1.62389
1.57061
1.51432
1.3221
1.54633
1.89148
2.29322
2.63959
2.86256
2.96131
2.93806
2.84727
2.72832
2.60641
2.49014
2.38035
2.27764
2.18198
2.09289
2.0095
1.93071
1.85544
1.78263
1.7119
1.64283
1.58198
1.50912
1.35162
1.64945
2.09757
2.6021
2.99345
3.19012
3.16542
3.04687
2.89766
2.73866
2.58068
2.43004
2.29091
2.16408
2.04858
1.94288
1.8452
1.75363
1.66659
1.58187
1.49935
1.41335
1.34211
1.23702
1.38039
1.75825
2.33132
2.93928
3.3149
3.35625
3.2117
2.98021
2.72159
2.47011
2.24168
2.04056
1.86543
1.71262
1.57774
1.45707
1.34711
1.24509
1.14906
1.05357
0.961615
0.86359
0.789525
0.670407
1.4057
1.87643
2.61204
3.29923
3.54407
3.39393
3.03399
2.61564
2.23221
1.90313
1.62979
1.40356
1.21652
1.05629
0.918636
0.799408
0.694926
0.602291
0.519595
0.447979
0.38771
0.333544
0.292614
0.242484
1.4275
2.0187
2.97568
3.67104
3.63855
3.24444
2.60699
2.06161
1.62365
1.28153
1.01752
0.809158
0.648052
0.527679
0.435932
0.363965
0.306269
0.25926
0.220558
0.188337
0.161495
0.138742
0.120804
0.10383
1.44967
2.21892
3.46765
3.9733
3.66489
2.86603
2.12782
1.5722
1.16246
0.863371
0.644838
0.492543
0.382831
0.302184
0.242063
0.196533
0.161457
0.134034
0.112348
0.0950479
0.0812134
0.0702462
0.0619303
0.0568234
1.48227
2.54034
4.06439
4.16868
3.50664
2.48809
1.76553
1.2546
0.89587
0.645645
0.471676
0.349823
0.263578
0.201851
0.157122
0.124278
0.0998236
0.0813815
0.067343
0.0566524
0.048618
0.0427525
0.0389407
0.0380583
1.54674
3.08278
4.59554
4.27222
3.17504
2.1792
1.49103
1.01776
0.699167
0.486929
0.346139
0.251472
0.186612
0.14125
0.108857
0.0852962
0.0679158
0.0549869
0.0453661
0.0382915
0.0332706
0.0299787
0.0284464
0.0290463
1.67319
3.91562
4.95867
4.29475
2.89429
1.89879
1.23009
0.795594
0.521437
0.348879
0.239261
0.168543
0.121987
0.0906308
0.069038
0.0538688
0.0430351
0.0352361
0.0296638
0.0258074
0.0233374
0.0220666
0.0221057
0.0233014
1.90747
4.93141
5.21512
4.10098
2.5834
1.59355
0.973618
0.602023
0.381648
0.249485
0.168492
0.117329
0.0840254
0.0618115
0.0467167
0.036323
0.0291244
0.0241389
0.0207352
0.0185517
0.0173798
0.0171396
0.0176527
0.0192284
2.33954
5.83715
5.41767
3.73176
2.21428
1.285
0.748177
0.44801
0.27865
0.180419
0.121316
0.0844962
0.0608391
0.0452123
0.0346365
0.0273395
0.0222479
0.0187135
0.0163485
0.0149154
0.0142713
0.0143334
0.0149923
0.016541
3.19724
6.46625
5.49709
3.30732
1.82868
0.997668
0.559071
0.327988
0.20221
0.130388
0.0875091
0.0609448
0.0439759
0.032849
0.0253839
0.0202828
0.0167658
0.0143662
0.0128123
0.0119467
0.0116848
0.0119076
0.0126795
0.0141151
4.72921
6.9069
5.32068
2.82291
1.43445
0.744869
0.409245
0.239338
0.147754
0.0955289
0.064383
0.0451111
0.0327973
0.0247048
0.0192611
0.0155399
0.0129867
0.0112694
0.0101939
0.00964886
0.00957644
0.00986786
0.0106367
0.0118736
7.19121
7.54166
4.8088
2.24127
1.0672
0.54365
0.299347
0.176088
0.109354
0.071176
0.0483557
0.0342007
0.025129
0.0191444
0.015099
0.0123183
0.0104007
0.00910855
0.00830568
0.00791629
0.00790167
0.00818315
0.00886554
0.00990831
10.0349
8.05656
3.73039
1.64329
0.768825
0.394569
0.21979
0.1306
0.081846
0.0537656
0.0368854
0.0263531
0.0195601
0.0150496
0.0119816
0.00985974
0.00838724
0.00738824
0.00676285
0.00645778
0.0064473
0.00668428
0.00725122
0.00811677
13.7155
7.75777
2.91957
1.18529
0.551371
0.288014
0.163079
0.0981323
0.0621855
0.0412909
0.0286262
0.0206598
0.0154803
0.0120134
0.00963581
0.00797659
0.00681209
0.0060088
0.00549092
0.00521948
0.00517716
0.00534467
0.00578138
0.00648491
2.66781
7.20797
10.2453
11.1052
11.026
42.0716
0.950597
3.70801
5.59597
7.17115
8.30151
12.5548
1.2676
2.99686
4.5175
6.01903
7.01559
7.30745
1.67859
2.74346
4.05801
5.35983
5.77914
5.26368
2.0092
2.63515
3.7961
4.84732
4.83622
3.97707
2.26404
2.58831
3.61982
4.42446
4.1624
3.06032
2.45108
2.56765
3.49251
4.09715
3.66254
2.47238
2.57887
2.55394
3.39688
3.85611
3.2901
2.08823
2.65513
2.5358
3.32139
3.68429
3.01235
1.83375
2.68619
2.50591
3.25701
3.56445
2.81838
1.65584
2.67829
2.46046
3.1973
3.48196
2.69525
1.5308
2.62996
2.3957
3.1398
3.42583
2.63413
1.44616
2.54608
2.30993
3.08157
3.40195
2.62625
1.39719
2.43093
2.2033
3.0193
3.39987
2.6584
1.38155
2.29164
2.07708
2.9488
3.42162
2.74095
1.39798
2.12952
1.93274
2.86288
3.46153
2.87215
1.44753
1.94534
1.77028
2.75231
3.51126
3.05372
1.53485
1.73796
1.58977
2.60404
3.55883
3.28471
1.6697
1.50129
1.39131
2.40194
3.57879
3.55903
1.8699
1.21923
1.17665
2.13082
3.56458
3.86991
2.15759
0.265097
0.947211
1.81829
3.41233
4.22407
2.57246
0.24426
0.823156
1.51816
3.02562
4.58994
3.15422
0.930219
0.917216
1.33156
2.42809
4.78712
4.00391
2.37943
1.85198
2.01533
2.29355
4.68208
5.89404
17.2744
4.94887
1.77363
0.77967
0.391212
0.212424
0.122624
0.0747818
0.0479545
0.0321991
0.0225561
0.0164331
0.012416
0.00970361
0.00782667
0.00650287
0.00555979
0.00489283
0.00444171
0.00417551
0.00408207
0.0041623
0.00446045
0.00501266
7.29803
2.8141
1.22483
0.580717
0.294712
0.160779
0.0937258
0.0578507
0.0375388
0.0254786
0.0180183
0.0132341
0.0100663
0.00790857
0.00640174
0.00532714
0.00454888
0.00398239
0.00357681
0.00330436
0.00315336
0.00313279
0.00328461
0.00368263
4.44336
1.96006
0.876882
0.419062
0.218034
0.122042
0.0725306
0.0454214
0.0298217
0.0204417
0.014576
0.0107776
0.00824003
0.00649682
0.0052687
0.0043834
0.00373191
0.00324418
0.0028754
0.00259777
0.00239546
0.00226916
0.00226563
0.00249101
3.05171
1.37306
0.635091
0.315494
0.167948
0.0952657
0.0572587
0.0362489
0.024037
0.0166174
0.0119313
0.00886919
0.0068067
0.00537888
0.00436497
0.00362715
0.00307683
0.00265547
0.00232332
0.00205231
0.00182157
0.0016196
0.00146249
0.00145161
2.15304
1.00271
0.47958
0.242706
0.131026
0.0753362
0.0458551
0.0293507
0.0196417
0.0136787
0.00987712
0.00737281
0.00567423
0.00449094
0.00364552
0.00302616
0.00256027
0.00219925
0.00190933
0.0016654
0.00144673
0.00123715
0.00103189
0.000761674
1.6266
0.769541
0.37359
0.191473
0.104555
0.0607656
0.0373625
0.0241306
0.0162692
0.0113967
0.0082657
0.00618959
0.00477392
0.00378344
0.00307324
0.00255137
0.00215788
0.00185265
0.00160794
0.00140316
0.00122106
0.00104798
0.000877661
0.000662665
1.29077
0.612951
0.299385
0.154515
0.0850643
0.0498762
0.0309319
0.0201273
0.0136513
0.00960588
0.00698943
0.00524583
0.00405254
0.0032156
0.00261461
0.00217278
0.00183984
0.00158214
0.0013764
0.00120523
0.0010537
0.000910557
0.000773461
0.000611056
1.06957
0.504788
0.246304
0.127526
0.0705975
0.0416718
0.0260186
0.0170277
0.0115996
0.00818727
0.0059695
0.00448652
0.0034695
0.00275554
0.0022429
0.00186636
0.00158309
0.00136435
0.00119029
0.00104606
0.000918977
0.000800296
0.000689972
0.000566614
0.916816
0.427581
0.207673
0.107587
0.0597467
0.0354271
0.022228
0.0146054
0.00997712
0.00705391
0.00514777
0.00387077
0.00299449
0.00237965
0.0019388
0.00161569
0.00137328
0.00118673
0.00103893
0.000917136
0.000810604
0.000712566
0.000623981
0.000529491
0.80839
0.371778
0.179372
0.0927787
0.0515409
0.030635
0.0192802
0.0126976
0.00868441
0.00614189
0.00448113
0.00336811
0.00260498
0.00207052
0.00168836
0.00140922
0.00120065
0.0010409
0.000915062
0.000812117
0.000722947
0.000642257
0.000571266
0.000498677
0.731403
0.331669
0.158641
0.0816675
0.0452985
0.0269372
0.0169745
0.0111859
0.00764824
0.00540371
0.00393732
0.00295561
0.002284
0.00181513
0.00148123
0.00123851
0.00105816
0.000920893
0.000813574
0.000726571
0.000652084
0.000585872
0.000529037
0.000473217
0.679
0.303025
0.143358
0.0733418
0.0405502
0.0240779
0.0151651
0.00998354
0.00681427
0.00480373
0.00349189
0.0026158
0.00201855
0.00160347
0.00130948
0.00109712
0.000940442
0.00082216
0.000730537
0.000657056
0.000594966
0.000540763
0.00049525
0.000452288
0.644743
0.283041
0.132326
0.0671808
0.0369632
0.0218728
0.0137458
0.00902624
0.00614184
0.00431495
0.00312613
0.00233517
0.00179852
0.00142772
0.00116687
0.000979915
0.000843202
0.000741013
0.000662731
0.000600722
0.000549061
0.000504753
0.000468256
0.000435161
0.62603
0.270222
0.124734
0.0627519
0.0343013
0.0201893
0.0126389
0.00826635
0.00560029
0.00391677
0.00282558
0.00210316
0.00161594
0.00128164
0.00104838
0.000882758
0.000762928
0.000674415
0.000607482
0.000555192
0.000512271
0.000476074
0.000446739
0.000421222
0.621281
0.263634
0.120061
0.0597608
0.0323991
0.0189324
0.0117874
0.00766829
0.00516638
0.0035933
0.00257894
0.00191146
0.00146445
0.00116023
0.000949951
0.000802267
0.000696732
0.000619849
0.000562564
0.000518489
0.000482867
0.000453293
0.000429652
0.000409964
0.630067
0.262825
0.117966
0.058015
0.031142
0.0180347
0.0111496
0.00720544
0.00482241
0.0033323
0.00237739
0.00175346
0.00133896
0.00105944
0.000868274
0.00073566
0.000642227
0.000575223
0.000526123
0.000488972
0.000459428
0.000435261
0.000416164
0.000400968
0.652795
0.267729
0.118201
0.0573921
0.0304536
0.0174495
0.0106949
0.00685794
0.00455494
0.00312426
0.00221398
0.0016239
0.00123536
0.000975972
0.000800634
0.000680648
0.000597435
0.000538798
0.000496618
0.000465283
0.000440797
0.000421056
0.000405612
0.000393883
0.690832
0.27878
0.12106
0.0577234
0.0302806
0.0171471
0.0104014
0.0066111
0.00435377
0.00296185
0.00208324
0.0015186
0.00115034
0.000907148
0.000744805
0.000635344
0.000560722
0.000509136
0.000472774
0.000446307
0.000426031
0.000409942
0.000397469
0.000388414
0.74655
0.296512
0.126526
0.0591883
0.0305285
0.017105
0.0102532
0.00645415
0.00421125
0.00283948
0.00198094
0.00143425
0.00108127
0.00085079
0.000698962
0.000598186
0.000530734
0.000485054
0.000453549
0.000431131
0.000414355
0.000401314
0.000391305
0.00038431
0.82358
0.321917
0.134814
0.0617697
0.0312558
0.0172679
0.0102394
0.00637898
0.00412173
0.00275293
0.00190385
0.00136829
0.00102604
0.000805151
0.000661612
0.000567883
0.000506347
0.000465569
0.000438087
0.000419004
0.000405112
0.00039462
0.000386725
0.000381329
0.926911
0.356228
0.1461
0.065445
0.0324918
0.0176508
0.0103295
0.00637943
0.004081
0.00269914
0.00184961
0.00131882
0.000983083
0.000768882
0.000631571
0.000543382
0.000486626
0.000449861
0.000425682
0.000409323
0.000397764
0.00038935
0.000383311
0.000379162
1.06304
0.400766
0.16045
0.0701592
0.0341631
0.018269
0.0105244
0.00643938
0.00408507
0.00267597
0.00181661
0.00128455
0.000951306
0.00074103
0.000607986
0.000523907
0.000470865
0.000437306
0.000415811
0.000401687
0.000392035
0.000385265
0.000380651
0.000377549
1.24194
0.456036
0.177424
0.0757217
0.0362023
0.0190939
0.0108527
0.00656224
0.00412658
0.00268111
0.00180391
0.00126471
0.000930046
0.000721006
0.000590321
0.000508964
0.000458605
0.000427479
0.000408085
0.000395754
0.000387661
0.000382229
0.000378687
0.000376458
1.47118
0.511776
0.193597
0.0814266
0.0384831
0.0200955
0.011303
0.00676545
0.00420944
0.00271116
0.00181008
0.00125899
0.00091899
0.000708502
0.000578261
0.000498235
0.000449537
0.000420082
0.000402219
0.000391244
0.000384363
0.000380002
0.000377332
0.000375785
2.6758
6.17879
8.82977
8.56512
7.37942
6.17748
0.96624
4.11644
5.12662
4.88959
4.40069
4.01478
1.36736
3.43024
3.86607
3.59773
3.17472
2.61904
1.90237
3.09493
3.28225
2.98333
2.56883
2.03688
2.3929
2.88285
2.9392
2.63505
2.23799
1.76075
2.84061
2.73671
2.71493
2.42454
2.05367
1.62383
3.2272
2.63427
2.56189
2.29741
1.95721
1.56327
3.54657
2.56212
2.45818
2.22611
1.91883
1.55257
3.79765
2.51223
2.3911
2.19517
1.922
1.57696
3.98143
2.47933
2.35264
2.19535
1.95706
1.63611
4.09963
2.46043
2.33733
2.21807
2.02255
1.72608
4.15506
2.45433
2.34068
2.26421
2.11452
1.8474
4.15834
2.46259
2.35883
2.3284
2.2316
2.00194
4.13031
2.48742
2.39158
2.40751
2.37262
2.19235
4.06127
2.52108
2.43409
2.4976
2.53564
2.42158
3.94242
2.55407
2.48145
2.59372
2.71906
2.69025
3.76508
2.57449
2.52704
2.69027
2.9185
3.00283
3.51984
2.56998
2.56265
2.78232
3.12799
3.36755
3.19616
2.53669
2.58053
2.86857
3.34162
3.79614
2.785
2.45595
2.58401
2.95531
3.55692
4.31939
2.28279
2.32601
2.60251
3.06928
3.78955
5.04964
1.70027
2.20259
2.72634
3.29626
4.13992
6.41737
1.18472
2.35134
3.28235
3.98063
4.93376
10.2125
3.28354
4.61284
6.51447
7.25509
7.8996
34.3749
1.62647
0.550304
0.206464
0.0868663
0.0409153
0.0212497
0.0118665
0.00704583
0.00434525
0.00277155
0.00183388
0.00126622
0.000918114
0.000703432
0.000571643
0.000491517
0.000443429
0.000414883
0.000397989
0.000387951
0.000381956
0.000378407
0.000376412
0.000375379
1.45325
0.551484
0.214971
0.0918144
0.043454
0.0225411
0.0125352
0.00739964
0.00453319
0.00286905
0.00188188
0.00128765
0.000926396
0.00070549
0.000570474
0.000488756
0.000440162
0.000411736
0.000395244
0.000385725
0.000380293
0.00037731
0.00037583
0.000375154
1.26617
0.534048
0.220036
0.0964376
0.0461381
0.0239847
0.0133172
0.00783158
0.00477321
0.00300274
0.00195603
0.00132812
0.000947497
0.00071559
0.000574602
0.000489863
0.000439758
0.000410626
0.000393937
0.000384491
0.000379285
0.00037667
0.000375488
0.000375055
1.14736
0.517698
0.224339
0.101202
0.049063
0.0256199
0.0142359
0.00835384
0.00507276
0.00317585
0.00205664
0.00138678
0.000981659
0.000735262
0.000585615
0.000495651
0.000442499
0.000411711
0.000394182
0.00038437
0.000379084
0.000376491
0.000375378
0.000375023
1.07864
0.509643
0.230203
0.10663
0.0523889
0.0275132
0.0153236
0.00898387
0.00544235
0.00339514
0.00218815
0.00146641
0.00103023
0.000764951
0.000603643
0.000506406
0.000448752
0.000415242
0.000396116
0.000385386
0.000379578
0.000376712
0.000375469
0.000375053
1.04496
0.512242
0.239146
0.113232
0.0563249
0.0297543
0.0166222
0.00974481
0.00589579
0.00366937
0.00235626
0.00157081
0.00109581
0.00080648
0.000629997
0.000523042
0.000459143
0.000421667
0.000400073
0.000387818
0.000380998
0.000377487
0.000375862
0.000375196
1.03898
0.526926
0.252255
0.121595
0.0611205
0.0324564
0.0181858
0.0106665
0.00645091
0.00400974
0.00256829
0.00170487
0.00118175
0.000862204
0.000666362
0.000546776
0.000474556
0.000431623
0.000406491
0.000391941
0.000383585
0.000378942
0.000376642
0.000375589
1.05771
0.554536
0.270702
0.132349
0.0670731
0.0357605
0.0200837
0.0117873
0.00713039
0.00443046
0.00283352
0.00187486
0.00129239
0.000935169
0.000714931
0.000579223
0.000496198
0.000446006
0.000416028
0.000398235
0.000387641
0.000381394
0.000378019
0.000376335
1.10101
0.596034
0.295819
0.146249
0.0745547
0.0398469
0.0224058
0.0131561
0.00796299
0.00494951
0.00316371
0.00208872
0.00143322
0.00102928
0.000778534
0.000622481
0.000525647
0.000466009
0.000429577
0.000407359
0.000393658
0.000385186
0.000380268
0.000377589
1.16982
0.653541
0.329399
0.164281
0.0840498
0.0449509
0.0252693
0.0148359
0.00898532
0.00558953
0.0035736
0.00235644
0.0016112
0.00114949
0.000860787
0.00067924
0.000564946
0.0004932
0.000448343
0.000420236
0.000402323
0.000390763
0.000383611
0.000379491
1.26637
0.730172
0.374047
0.187787
0.0962105
0.0513872
0.0288288
0.0169087
0.0102442
0.0063792
0.00408178
0.00269059
0.00183515
0.00130214
0.000966329
0.000752979
0.000616759
0.000529649
0.000473932
0.000438081
0.000414502
0.000398676
0.000388369
0.000382206
1.3943
0.830117
0.433456
0.218625
0.111934
0.0595841
0.0332927
0.0194823
0.0118001
0.00735497
0.00471169
0.00310702
0.00211618
0.00149527
0.00110114
0.000848234
0.000684593
0.000578102
0.000508482
0.000462501
0.000431324
0.000409678
0.000395133
0.000386072
1.55874
0.959503
0.511937
0.259326
0.132466
0.0701348
0.0389456
0.022701
0.0137318
0.00856354
0.00549296
0.00362567
0.00246833
0.00173911
0.00127286
0.000970846
0.000772984
0.000642115
0.000554775
0.000495639
0.000454402
0.000424954
0.000404664
0.000391477
1.76633
1.12602
0.615405
0.313414
0.159559
0.083868
0.0461835
0.0267601
0.0161435
0.0100652
0.00646324
0.0042716
0.00290917
0.00204648
0.00149115
0.00112822
0.000887709
0.000726243
0.000616422
0.000540341
0.000485921
0.000446065
0.000417916
0.000398828
2.02523
1.33926
0.751582
0.385864
0.195684
0.101943
0.0555699
0.0319276
0.0191744
0.0119386
0.00767062
0.00507634
0.00346063
0.00243334
0.00176799
0.00132963
0.00103605
0.000836275
0.000698061
0.000600308
0.000528751
0.000475067
0.000436153
0.000408645
2.34544
1.61099
0.930243
0.483505
0.24433
0.126001
0.0678831
0.038573
0.0230125
0.0142874
0.00917702
0.00607969
0.00414998
0.00291939
0.00211824
0.00158657
0.00122711
0.000979527
0.000805609
0.00068031
0.00058663
0.000514686
0.000461088
0.000421624
2.73487
1.95567
1.16361
0.614878
0.310297
0.158371
0.0841981
0.0472109
0.0279152
0.0172501
0.011063
0.00733228
0.00501129
0.00352895
0.00256009
0.00191317
0.00147215
0.00116514
0.000946541
0.000786433
0.000664394
0.000568521
0.000495037
0.000438693
3.19874
2.39108
1.46558
0.790509
0.400019
0.202282
0.106037
0.0585676
0.0342393
0.0210138
0.0134348
0.00889919
0.00608744
0.00429211
0.00311583
0.00232668
0.00178498
0.00140438
0.00113019
0.00092638
0.000768254
0.000641279
0.000541092
0.000461089
3.74892
2.93384
1.85029
1.02221
0.521761
0.262124
0.135506
0.073685
0.0424837
0.0258349
0.0164344
0.0108654
0.00743307
0.00524643
0.00381284
0.00284809
0.00218232
0.00171102
0.00136804
0.00110979
0.000906126
0.000739083
0.000603347
0.000490429
4.41796
3.59707
2.32931
1.32155
0.685115
0.34364
0.175509
0.0939585
0.0533374
0.0320661
0.0202543
0.0133437
0.00911909
0.00643957
0.00468517
0.00350307
0.00268447
0.00210168
0.00167411
0.00134856
0.00108801
0.000869872
0.000687227
0.00052879
5.28482
4.39487
2.90898
1.69706
0.899313
0.453791
0.229876
0.121289
0.0677533
0.0401952
0.025158
0.0164859
0.0112392
0.00793324
0.005776
0.00432356
0.00331626
0.00259654
0.00206535
0.00165727
0.00132643
0.00104392
0.000799971
0.000578794
6.56513
5.37274
3.59088
2.15058
1.17088
0.599742
0.303378
0.158202
0.0870371
0.0508959
0.031508
0.0204993
0.0139196
0.00980923
0.00714157
0.00535042
0.0041089
0.00322054
0.00256251
0.00205378
0.00163702
0.00127454
0.000951348
0.000643682
9.24674
6.59081
4.37977
2.6777
1.50131
0.786874
0.401209
0.207932
0.112921
0.0650866
0.0398033
0.0256685
0.0173327
0.0121785
0.00885749
0.00663796
0.00510332
0.0040059
0.00319199
0.00256051
0.00203949
0.00157924
0.00115536
0.000727976
16.8481
8.9017
5.39938
3.28562
1.8884
1.01776
0.527873
0.274161
0.147622
0.0839958
0.0507243
0.0323846
0.0217154
0.0151933
0.0110275
0.00826081
0.00635591
0.00499707
0.00399009
0.00320808
0.00256065
0.00198242
0.00143289
0.000838697
)
;

boundaryField
{
    rotor
    {
        type            epsilonWallFunction;
        value           nonuniform List<scalar> 
144
(
3.68222
3.9043
4.26788
3.56002
2.69975
2.43129
3.68222
1.24426
1.74914
2.27779
2.72807
3.11195
3.44088
3.72217
3.9604
4.15959
4.32465
4.45117
4.50557
4.49027
4.39612
4.22158
3.96513
3.62601
3.20595
2.71185
2.16081
1.56346
1.08761
2.80446
2.80446
5.80356
7.63768
7.74432
6.97912
6.22668
1.62889
2.12476
3.90323
5.30567
5.97245
6.13204
1.62889
0.762157
0.217447
0.246154
0.267314
0.280783
1.24894
1.32904
1.38881
1.42847
1.44767
1.44696
1.42706
1.3967
1.35375
1.29662
1.22363
0.280667
0.275294
0.265802
0.250534
0.22943
0.863252
2.114
2.114
2.195
2.18522
2.18282
1.85853
1.85286
2.66781
7.20797
10.2453
11.1052
11.026
42.0716
2.66781
0.950597
1.2676
1.67859
2.0092
2.26404
2.45108
2.57887
2.65513
2.68619
2.67829
2.62996
2.54608
2.43093
2.29164
2.12952
1.94534
1.73796
1.50129
1.21923
0.265097
0.24426
0.930219
2.37943
2.37943
1.85198
2.01533
2.29355
4.68208
5.89404
2.6758
6.17879
8.82977
8.56512
7.37942
6.17748
2.6758
0.96624
1.36736
1.90237
2.3929
2.84061
3.2272
3.54657
3.79765
3.98143
4.09963
4.15506
4.15834
4.13031
4.06127
3.94242
3.76508
3.51984
3.19616
2.785
2.28279
1.70027
1.18472
3.28354
3.28354
4.61284
6.51447
7.25509
7.8996
34.3749
)
;
    }
    freestream
    {
        type            inletOutlet;
        inletValue      uniform 0.000375;
        value           nonuniform List<scalar> 
96
(
0.000375
0.000375
0.00326069
0.0065016
0.0100758
0.0139094
0.0180742
0.0225868
0.0274555
0.0327032
0.0383746
0.0445354
0.0513039
0.0589023
0.06777
0.0786736
0.0929978
0.113261
0.14409
0.193935
0.277634
0.416838
0.628475
0.901538
1.12855
1.18483
1.11253
1.01838
1.012
1.1271
1.37295
1.51432
1.50912
1.23702
0.670407
0.242484
0.10383
0.0568234
0.0380583
0.0290463
0.0233014
0.0192284
0.016541
0.0141151
0.0118736
0.00990831
0.00811677
0.00648491
0.00501266
0.00368263
0.00249101
0.00145161
0.000375
0.000375
0.000375
0.000375
0.000375
0.000375
0.000375
0.000375
0.000375
0.000375
0.000375
0.000375
0.000375
0.000375
0.000375
0.000375
0.000375
0.000375
0.000375
0.000375
0.000375
0.000375
0.000375
0.000375
0.000375
0.000375
0.000375
0.000375
0.000375
0.000375
0.000375
0.000375
0.000375
0.000375
0.000375
0.000375
0.000375
0.000375
0.000375
0.000375
0.000375
0.000375
0.000375
0.000375
)
;
    }
    frontAndBack
    {
        type            empty;
    }
}


// ************************************************************************* //
