/*--------------------------------*- C++ -*----------------------------------*\
  =========                 |
  \\      /  F ield         | OpenFOAM: The Open Source CFD Toolbox
   \\    /   O peration     | Website:  https://openfoam.org
    \\  /    A nd           | Version:  11
     \\/     M anipulation  |
\*---------------------------------------------------------------------------*/
FoamFile
{
    format      ascii;
    class       surfaceScalarField;
    location    "1.22";
    object      meshPhi;
}
// * * * * * * * * * * * * * * * * * * * * * * * * * * * * * * * * * * * * * //

dimensions      [0 3 -1 0 0 0 0];

internalField   nonuniform List<scalar> 
5640
(
1.36914e-16
9.81747e-07
2.42036e-16
1.37445e-06
3.76914e-16
1.76715e-06
-1.33937e-15
2.15984e-06
-3.68171e-15
2.55254e-06
2.94524e-06
5.95083e-15
1.81006e-18
9.81747e-07
-3.88853e-16
1.37445e-06
-2.60415e-15
1.76715e-06
1.94348e-15
2.15984e-06
8.06618e-15
2.55254e-06
2.94524e-06
-9.03012e-15
-1.16501e-16
9.81747e-07
1.86348e-16
1.37445e-06
-1.56237e-15
1.76715e-06
-4.2126e-15
2.15984e-06
-7.49855e-15
2.55254e-06
2.94524e-06
7.72219e-16
8.69188e-17
9.81747e-07
-1.01932e-16
1.37445e-06
2.69302e-15
1.76715e-06
7.44267e-15
2.15984e-06
3.25969e-15
2.55254e-06
2.94524e-06
-2.79815e-15
-4.83994e-17
9.81747e-07
3.95046e-17
1.37445e-06
1.94274e-16
1.76715e-06
-1.80623e-15
2.15984e-06
-4.20867e-15
2.55254e-06
2.94524e-06
5.01317e-15
-1.80126e-16
9.81747e-07
4.30268e-18
1.37445e-06
-1.84786e-15
1.76715e-06
-3.8862e-15
2.15984e-06
3.15694e-15
2.55254e-06
2.94524e-06
4.97989e-16
2.53969e-16
9.81747e-07
2.55406e-16
1.37445e-06
2.06585e-15
1.76715e-06
4.50405e-15
2.15984e-06
-2.3101e-15
2.55254e-06
2.94524e-06
5.40696e-16
2.16343e-17
9.81747e-07
-3.21752e-16
1.37445e-06
-1.14889e-15
1.76715e-06
-5.28577e-15
2.15984e-06
-3.76821e-16
2.55254e-06
2.94524e-06
-5.64008e-15
-1.43406e-16
9.81747e-07
1.66307e-16
1.37445e-06
4.19105e-15
1.76715e-06
6.34923e-15
2.15984e-06
-8.05803e-16
2.55254e-06
2.94524e-06
8.39205e-16
-6.8822e-17
9.81747e-07
-9.21442e-17
1.37445e-06
-2.76946e-15
1.76715e-06
-3.68915e-16
2.15984e-06
-1.45111e-15
2.55254e-06
2.94524e-06
-1.7693e-16
1.66311e-16
9.81747e-07
-8.87725e-17
1.37445e-06
5.69606e-16
1.76715e-06
-2.10359e-15
2.15984e-06
9.65967e-15
2.55254e-06
2.94524e-06
5.2899e-15
-1.77814e-16
9.81747e-07
-2.05914e-17
1.37445e-06
-3.4552e-16
1.76715e-06
-4.17273e-15
2.15984e-06
-2.62262e-15
2.55254e-06
2.94524e-06
5.36919e-15
1.77754e-16
9.81747e-07
2.05123e-17
1.37445e-06
3.45477e-16
1.76715e-06
4.17256e-15
2.15984e-06
2.62216e-15
2.55254e-06
2.94524e-06
-5.3697e-15
-1.66358e-16
9.81747e-07
8.86497e-17
1.37445e-06
-5.69682e-16
1.76715e-06
2.10339e-15
2.15984e-06
-9.6603e-15
2.55254e-06
2.94524e-06
-5.29046e-15
6.87978e-17
9.81747e-07
9.19946e-17
1.37445e-06
2.7693e-15
1.76715e-06
3.68685e-16
2.15984e-06
1.45065e-15
2.55254e-06
2.94524e-06
1.76429e-16
1.43391e-16
9.81747e-07
-1.66462e-16
1.37445e-06
-4.19121e-15
1.76715e-06
-6.34948e-15
2.15984e-06
8.05502e-16
2.55254e-06
2.94524e-06
-8.39528e-16
-2.17036e-17
9.81747e-07
3.21652e-16
1.37445e-06
1.14879e-15
1.76715e-06
5.28553e-15
2.15984e-06
3.76588e-16
2.55254e-06
2.94524e-06
5.6398e-15
-2.53992e-16
9.81747e-07
-2.5546e-16
1.37445e-06
-2.06599e-15
1.76715e-06
-4.50418e-15
2.15984e-06
2.30996e-15
2.55254e-06
2.94524e-06
-5.40905e-16
1.80072e-16
9.81747e-07
-4.38072e-18
1.37445e-06
1.84774e-15
1.76715e-06
3.88605e-15
2.15984e-06
-3.15703e-15
2.55254e-06
2.94524e-06
-4.98285e-16
4.83399e-17
9.81747e-07
-3.95786e-17
1.37445e-06
-1.94388e-16
1.76715e-06
1.80604e-15
2.15984e-06
4.20855e-15
2.55254e-06
2.94524e-06
-5.01352e-15
-8.69758e-17
9.81747e-07
1.0188e-16
1.37445e-06
-2.69326e-15
1.76715e-06
-7.44293e-15
2.15984e-06
-3.25986e-15
2.55254e-06
2.94524e-06
2.79763e-15
1.1644e-16
9.81747e-07
-1.86407e-16
1.37445e-06
1.56224e-15
1.76715e-06
4.2124e-15
2.15984e-06
7.49845e-15
2.55254e-06
2.94524e-06
-7.72595e-16
-1.87626e-18
9.81747e-07
3.88692e-16
1.37445e-06
2.60404e-15
1.76715e-06
-1.9437e-15
2.15984e-06
-8.06626e-15
2.55254e-06
2.94524e-06
9.0298e-15
-1.36956e-16
-2.42189e-16
-3.77093e-16
1.33916e-15
3.68145e-15
-5.95136e-15
-1.13363e-14
4.53785e-06
-4.53785e-06
-4.81521e-16
5.23599e-06
-5.23599e-06
-5.35781e-15
5.93412e-06
-5.93412e-06
-1.13045e-14
6.63225e-06
-6.63225e-06
4.86799e-15
7.33038e-06
-7.33038e-06
-1.10955e-15
8.02851e-06
-8.02851e-06
-8.15943e-15
8.72664e-06
-8.72664e-06
1.30433e-14
9.42478e-06
-9.42478e-06
5.94836e-15
1.01229e-05
-1.01229e-05
-1.99764e-15
1.0821e-05
-1.0821e-05
2.43851e-14
1.15192e-05
-1.15192e-05
1.61884e-14
1.22173e-05
-1.22173e-05
-3.27871e-14
1.29154e-05
-1.29154e-05
-3.05182e-15
1.36136e-05
-1.36136e-05
-1.44454e-14
1.43117e-05
-1.43117e-05
-2.69019e-14
1.50098e-05
-1.50098e-05
7.73903e-15
1.5708e-05
-1.5708e-05
-4.43823e-15
1.64061e-05
-1.64061e-05
-1.80041e-14
1.71042e-05
-1.71042e-05
2.1816e-14
1.78024e-05
-1.78024e-05
8.20631e-15
1.85005e-05
-1.85005e-05
-6.08198e-15
1.91986e-05
-1.91986e-05
3.89172e-14
1.98967e-05
-1.98967e-05
2.05949e-05
-2.05949e-05
9.39882e-15
4.53785e-06
5.19857e-16
5.23599e-06
7.52819e-15
5.93412e-06
-4.41205e-15
6.63225e-06
3.78253e-15
7.33038e-06
1.33834e-14
8.02851e-06
-2.11047e-15
8.72664e-06
8.52846e-15
9.42478e-06
-1.00279e-14
1.01229e-05
1.86546e-15
1.0821e-05
-2.02042e-14
1.15192e-05
-7.01453e-15
1.22173e-05
7.50975e-15
1.29154e-05
2.36104e-14
1.36136e-05
-2.04621e-15
1.43117e-05
1.48332e-14
1.50098e-05
-1.38786e-14
1.5708e-05
2.3903e-15
1.64061e-05
2.04083e-14
1.71042e-05
-7.02014e-15
1.78024e-05
1.20631e-14
1.85005e-05
-2.59432e-14
1.91986e-05
1.84057e-15
1.98967e-05
2.05949e-05
-8.67628e-15
4.53785e-06
1.2292e-14
5.23599e-06
1.88289e-15
5.93412e-06
8.90204e-15
6.63225e-06
-5.1088e-15
7.33038e-06
-2.19928e-14
8.02851e-06
1.22636e-14
8.72664e-06
-5.37432e-15
9.42478e-06
4.45611e-15
1.01229e-05
-1.43053e-14
1.0821e-05
-7.32671e-15
1.15192e-05
7.03869e-15
1.22173e-05
2.39938e-14
1.29154e-05
-7.55468e-15
1.36136e-05
9.7997e-15
1.43117e-05
-1.62384e-14
1.50098e-05
4.02949e-14
1.5708e-05
1.44457e-14
1.64061e-05
-1.37062e-14
1.71042e-05
-7.89508e-15
1.78024e-05
-3.92542e-14
1.85005e-05
4.27496e-14
1.91986e-05
-8.85213e-15
1.98967e-05
2.05949e-05
5.98581e-15
4.53785e-06
2.18616e-16
5.23599e-06
-6.4359e-15
5.93412e-06
6.0635e-15
6.63225e-06
-2.09319e-15
7.33038e-06
1.61761e-14
8.02851e-06
-1.88322e-14
8.72664e-06
-2.35073e-15
9.42478e-06
9.17094e-15
1.01229e-05
-4.71122e-15
1.0821e-05
2.16262e-14
1.15192e-05
-2.96459e-14
1.22173e-05
-9.29134e-15
1.29154e-05
-1.89107e-14
1.36136e-05
4.4666e-15
1.43117e-05
3.01537e-14
1.50098e-05
-2.62207e-14
1.5708e-05
4.34432e-16
1.64061e-05
-2.11754e-14
1.71042e-05
1.87112e-14
1.78024e-05
-3.92458e-15
1.85005e-05
-2.91622e-14
1.91986e-05
1.52299e-14
1.98967e-05
2.05949e-05
6.71481e-15
4.53785e-06
-7.30701e-15
5.23599e-06
1.11004e-14
5.93412e-06
-4.24186e-15
6.63225e-06
1.51015e-14
7.33038e-06
-5.20994e-15
8.02851e-06
1.70119e-14
8.72664e-06
-3.94176e-15
9.42478e-06
-2.94399e-16
1.01229e-05
6.61073e-15
1.0821e-05
1.37032e-14
1.15192e-05
1.01831e-14
1.22173e-05
1.82163e-14
1.29154e-05
1.43636e-14
1.36136e-05
2.3339e-14
1.43117e-05
-2.53462e-14
1.50098e-05
2.907e-14
1.5708e-05
-7.8313e-15
1.64061e-05
3.54173e-14
1.71042e-05
-4.5153e-15
1.78024e-05
4.2369e-14
1.85005e-05
-5.87643e-16
1.91986e-05
-8.73933e-15
1.98967e-05
2.05949e-05
-4.63054e-15
4.53785e-06
5.7974e-15
5.23599e-06
-1.6151e-14
5.93412e-06
-5.97491e-15
6.63225e-06
-8.55576e-15
7.33038e-06
4.22371e-15
8.02851e-06
-8.1876e-15
8.72664e-06
6.99838e-15
9.42478e-06
-2.42311e-14
1.01229e-05
-7.77139e-15
1.0821e-05
-2.27652e-14
1.15192e-05
8.34773e-15
1.22173e-05
-7.40517e-15
1.29154e-05
2.82636e-14
1.36136e-05
-4.5709e-14
1.43117e-05
-8.22478e-15
1.50098e-05
-2.82275e-14
1.5708e-05
-2.34324e-15
1.64061e-05
-6.94454e-15
1.71042e-05
2.21473e-14
1.78024e-05
-3.41137e-14
1.85005e-05
-3.7457e-15
1.91986e-05
-3.23546e-14
1.98967e-05
2.05949e-05
-8.92522e-15
4.53785e-06
-2.28932e-15
5.23599e-06
-2.22434e-15
5.93412e-06
6.61548e-15
6.63225e-06
-3.38823e-15
7.33038e-06
-3.90746e-15
8.02851e-06
-6.41845e-15
8.72664e-06
-7.15895e-15
9.42478e-06
6.80998e-15
1.01229e-05
6.98108e-15
1.0821e-05
-9.06564e-15
1.15192e-05
6.75818e-15
1.22173e-05
-2.88906e-14
1.29154e-05
-1.2236e-14
1.36136e-05
4.80403e-15
1.43117e-05
2.50239e-14
1.50098e-05
3.85678e-15
1.5708e-05
3.60477e-15
1.64061e-05
-2.04851e-14
1.71042e-05
-2.17633e-14
1.78024e-05
3.46685e-15
1.85005e-05
2.90383e-14
1.91986e-05
-1.66748e-15
1.98967e-05
2.05949e-05
6.21555e-15
4.53785e-06
-3.87961e-15
5.23599e-06
1.54216e-14
5.93412e-06
-7.06538e-15
6.63225e-06
-2.21169e-15
7.33038e-06
1.42881e-15
8.02851e-06
-5.49322e-15
8.72664e-06
1.32258e-14
9.42478e-06
6.04501e-15
1.01229e-05
-1.74524e-14
1.0821e-05
2.08854e-14
1.15192e-05
-2.14464e-14
1.22173e-05
1.91337e-14
1.29154e-05
-7.31757e-15
1.36136e-05
3.84868e-14
1.43117e-05
-1.29255e-14
1.50098e-05
-1.88644e-15
1.5708e-05
5.71525e-15
1.64061e-05
-7.58524e-15
1.71042e-05
2.76549e-14
1.78024e-05
1.40953e-14
1.85005e-05
-5.31436e-14
1.91986e-05
3.9081e-14
1.98967e-05
2.05949e-05
-1.49869e-15
4.53785e-06
1.08966e-14
5.23599e-06
-6.5996e-15
5.93412e-06
7.26508e-15
6.63225e-06
6.17427e-15
7.33038e-06
2.48813e-15
8.02851e-06
-9.65874e-16
8.72664e-06
-4.3655e-15
9.42478e-06
-8.90215e-15
1.01229e-05
1.38625e-14
1.0821e-05
1.06889e-14
1.15192e-05
6.24965e-15
1.22173e-05
-1.2722e-16
1.29154e-05
-3.43941e-15
1.36136e-05
-1.10462e-14
1.43117e-05
-1.77679e-14
1.50098e-05
1.76806e-14
1.5708e-05
9.95251e-15
1.64061e-05
3.32706e-15
1.71042e-05
-3.29718e-14
1.78024e-05
-1.04243e-14
1.85005e-05
3.0063e-14
1.91986e-05
-5.99924e-14
1.98967e-05
2.05949e-05
5.16977e-15
4.53785e-06
-7.4557e-15
5.23599e-06
-7.57032e-16
5.93412e-06
6.83934e-15
6.63225e-06
-9.97495e-15
7.33038e-06
-1.66477e-15
8.02851e-06
9.21758e-15
8.72664e-06
-1.34594e-14
9.42478e-06
2.32203e-14
1.01229e-05
1.04717e-14
1.0821e-05
-1.72741e-14
1.15192e-05
-3.02813e-15
1.22173e-05
1.13962e-14
1.29154e-05
-1.98173e-14
1.36136e-05
-4.67921e-15
1.43117e-05
5.03058e-14
1.50098e-05
-2.40465e-14
1.5708e-05
-6.65909e-15
1.64061e-05
1.4257e-14
1.71042e-05
1.6458e-15
1.78024e-05
-6.81496e-15
1.85005e-05
1.44401e-14
1.91986e-05
5.07561e-14
1.98967e-05
2.05949e-05
-6.19778e-15
4.53785e-06
2.83873e-17
5.23599e-06
1.15117e-14
5.93412e-06
-2.06266e-14
6.63225e-06
5.36649e-15
7.33038e-06
1.22093e-15
8.02851e-06
-4.73756e-17
8.72664e-06
1.23921e-14
9.42478e-06
-1.32269e-14
1.01229e-05
-1.88963e-14
1.0821e-05
-4.96634e-15
1.15192e-05
-7.15394e-15
1.22173e-05
-1.48882e-14
1.29154e-05
3.53388e-14
1.36136e-05
-3.90633e-18
1.43117e-05
-4.3139e-14
1.50098e-05
1.35617e-14
1.5708e-05
-2.82569e-14
1.64061e-05
2.44989e-15
1.71042e-05
-1.02471e-14
1.78024e-05
2.38001e-14
1.85005e-05
1.38684e-14
1.91986e-05
-4.55677e-14
1.98967e-05
2.05949e-05
-1.90701e-15
4.53785e-06
1.13033e-15
5.23599e-06
-2.16624e-14
5.93412e-06
9.62386e-15
6.63225e-06
1.5137e-14
7.33038e-06
-1.40662e-14
8.02851e-06
8.09253e-15
8.72664e-06
-2.69613e-14
9.42478e-06
-1.96658e-15
1.01229e-05
2.97156e-14
1.0821e-05
-1.1748e-14
1.15192e-05
1.98661e-14
1.22173e-05
-2.74469e-14
1.29154e-05
-2.06179e-14
1.36136e-05
1.60371e-14
1.43117e-05
-4.61462e-15
1.50098e-05
4.68785e-15
1.5708e-05
4.79693e-14
1.64061e-05
-1.37439e-14
1.71042e-05
3.23701e-14
1.78024e-05
-3.51907e-14
1.85005e-05
-2.49101e-14
1.91986e-05
7.1913e-14
1.98967e-05
2.05949e-05
1.90632e-15
4.53785e-06
-1.13113e-15
5.23599e-06
2.16614e-14
5.93412e-06
-9.6242e-15
6.63225e-06
-1.51382e-14
7.33038e-06
1.40644e-14
8.02851e-06
-8.09288e-15
8.72664e-06
2.69585e-14
9.42478e-06
1.96344e-15
1.01229e-05
-2.97186e-14
1.0821e-05
1.17446e-14
1.15192e-05
-1.98687e-14
1.22173e-05
2.74425e-14
1.29154e-05
2.06128e-14
1.36136e-05
-1.60458e-14
1.43117e-05
4.61254e-15
1.50098e-05
-4.69387e-15
1.5708e-05
-4.79705e-14
1.64061e-05
1.37371e-14
1.71042e-05
-3.23715e-14
1.78024e-05
3.51819e-14
1.85005e-05
2.48964e-14
1.91986e-05
-7.1921e-14
1.98967e-05
2.05949e-05
6.19693e-15
4.53785e-06
-2.87828e-17
5.23599e-06
-1.1512e-14
5.93412e-06
2.06254e-14
6.63225e-06
-5.36745e-15
7.33038e-06
-1.22291e-15
8.02851e-06
4.65917e-17
8.72664e-06
-1.23941e-14
9.42478e-06
1.32253e-14
1.01229e-05
1.88933e-14
1.0821e-05
4.96219e-15
1.15192e-05
7.1521e-15
1.22173e-05
1.48857e-14
1.29154e-05
-3.53414e-14
1.36136e-05
-2.23316e-18
1.43117e-05
4.31351e-14
1.50098e-05
-1.35663e-14
1.5708e-05
2.82539e-14
1.64061e-05
-2.45945e-15
1.71042e-05
1.02388e-14
1.78024e-05
-2.38074e-14
1.85005e-05
-1.38779e-14
1.91986e-05
4.55609e-14
1.98967e-05
2.05949e-05
-5.1705e-15
4.53785e-06
7.45526e-15
5.23599e-06
7.56384e-16
5.93412e-06
-6.84031e-15
6.63225e-06
9.97341e-15
7.33038e-06
1.66371e-15
8.02851e-06
-9.22e-15
8.72664e-06
1.34591e-14
9.42478e-06
-2.32229e-14
1.01229e-05
-1.04732e-14
1.0821e-05
1.72707e-14
1.15192e-05
3.02554e-15
1.22173e-05
-1.14004e-14
1.29154e-05
1.98134e-14
1.36136e-05
4.67569e-15
1.43117e-05
-5.03105e-14
1.50098e-05
2.40437e-14
1.5708e-05
6.65485e-15
1.64061e-05
-1.42652e-14
1.71042e-05
-1.65303e-15
1.78024e-05
6.80789e-15
1.85005e-05
-1.4443e-14
1.91986e-05
-5.07635e-14
1.98967e-05
2.05949e-05
1.4984e-15
4.53785e-06
-1.08975e-14
5.23599e-06
6.59876e-15
5.93412e-06
-7.26655e-15
6.63225e-06
-6.17586e-15
7.33038e-06
-2.48925e-15
8.02851e-06
9.64001e-16
8.72664e-06
4.36394e-15
9.42478e-06
8.89964e-15
1.01229e-05
-1.38645e-14
1.0821e-05
-1.06926e-14
1.15192e-05
-6.25352e-15
1.22173e-05
1.25089e-16
1.29154e-05
3.43422e-15
1.36136e-05
1.10408e-14
1.43117e-05
1.77604e-14
1.50098e-05
-1.76845e-14
1.5708e-05
-9.95702e-15
1.64061e-05
-3.33286e-15
1.71042e-05
3.29655e-14
1.78024e-05
1.04197e-14
1.85005e-05
-3.00712e-14
1.91986e-05
5.99879e-14
1.98967e-05
2.05949e-05
-6.21591e-15
4.53785e-06
3.87895e-15
5.23599e-06
-1.54226e-14
5.93412e-06
7.06421e-15
6.63225e-06
2.20975e-15
7.33038e-06
-1.42969e-15
8.02851e-06
5.49209e-15
8.72664e-06
-1.32264e-14
9.42478e-06
-6.04628e-15
1.01229e-05
1.74491e-14
1.0821e-05
-2.08888e-14
1.15192e-05
2.14425e-14
1.22173e-05
-1.91372e-14
1.29154e-05
7.31326e-15
1.36136e-05
-3.84897e-14
1.43117e-05
1.29191e-14
1.50098e-05
1.87994e-15
1.5708e-05
-5.71877e-15
1.64061e-05
7.58007e-15
1.71042e-05
-2.76612e-14
1.78024e-05
-1.41004e-14
1.85005e-05
5.31394e-14
1.91986e-05
-3.90887e-14
1.98967e-05
2.05949e-05
8.92492e-15
4.53785e-06
2.28868e-15
5.23599e-06
2.22351e-15
5.93412e-06
-6.61702e-15
6.63225e-06
3.38747e-15
7.33038e-06
3.90648e-15
8.02851e-06
6.41764e-15
8.72664e-06
7.15724e-15
9.42478e-06
-6.81051e-15
1.01229e-05
-6.98508e-15
1.0821e-05
9.06364e-15
1.15192e-05
-6.76255e-15
1.22173e-05
2.8885e-14
1.29154e-05
1.22312e-14
1.36136e-05
-4.80509e-15
1.43117e-05
-2.5029e-14
1.50098e-05
-3.86637e-15
1.5708e-05
-3.60845e-15
1.64061e-05
2.04809e-14
1.71042e-05
2.17585e-14
1.78024e-05
-3.46878e-15
1.85005e-05
-2.90437e-14
1.91986e-05
1.65605e-15
1.98967e-05
2.05949e-05
4.63021e-15
4.53785e-06
-5.79829e-15
5.23599e-06
1.61505e-14
5.93412e-06
5.97394e-15
6.63225e-06
8.55404e-15
7.33038e-06
-4.22485e-15
8.02851e-06
8.18576e-15
8.72664e-06
-7.00124e-15
9.42478e-06
2.42303e-14
1.01229e-05
7.76702e-15
1.0821e-05
2.27621e-14
1.15192e-05
-8.35096e-15
1.22173e-05
7.40108e-15
1.29154e-05
-2.82676e-14
1.36136e-05
4.57092e-14
1.43117e-05
8.21777e-15
1.50098e-05
2.82227e-14
1.5708e-05
2.34006e-15
1.64061e-05
6.9408e-15
1.71042e-05
-2.21542e-14
1.78024e-05
3.41034e-14
1.85005e-05
3.73231e-15
1.91986e-05
3.23388e-14
1.98967e-05
2.05949e-05
-6.71528e-15
4.53785e-06
7.30627e-15
5.23599e-06
-1.11008e-14
5.93412e-06
4.24054e-15
6.63225e-06
-1.51035e-14
7.33038e-06
5.20927e-15
8.02851e-06
-1.70147e-14
8.72664e-06
3.93913e-15
9.42478e-06
2.93323e-16
1.01229e-05
-6.61329e-15
1.0821e-05
-1.37087e-14
1.15192e-05
-1.01868e-14
1.22173e-05
-1.82194e-14
1.29154e-05
-1.43704e-14
1.36136e-05
-2.33395e-14
1.43117e-05
2.53405e-14
1.50098e-05
-2.90764e-14
1.5708e-05
7.82532e-15
1.64061e-05
-3.54165e-14
1.71042e-05
4.51331e-15
1.78024e-05
-4.23747e-14
1.85005e-05
5.85216e-16
1.91986e-05
8.73012e-15
1.98967e-05
2.05949e-05
-5.98605e-15
4.53785e-06
-2.19435e-16
5.23599e-06
6.43528e-15
5.93412e-06
-6.06466e-15
6.63225e-06
2.09181e-15
7.33038e-06
-1.61781e-14
8.02851e-06
1.88303e-14
8.72664e-06
2.35007e-15
9.42478e-06
-9.17214e-15
1.01229e-05
4.70887e-15
1.0821e-05
-2.16304e-14
1.15192e-05
2.9644e-14
1.22173e-05
9.28692e-15
1.29154e-05
1.89039e-14
1.36136e-05
-4.46674e-15
1.43117e-05
-3.01547e-14
1.50098e-05
2.62147e-14
1.5708e-05
-4.37141e-16
1.64061e-05
2.11688e-14
1.71042e-05
-1.87132e-14
1.78024e-05
3.91963e-15
1.85005e-05
2.91528e-14
1.91986e-05
-1.52333e-14
1.98967e-05
2.05949e-05
8.67612e-15
4.53785e-06
-1.22929e-14
5.23599e-06
-1.88341e-15
5.93412e-06
-8.90289e-15
6.63225e-06
5.10812e-15
7.33038e-06
2.19899e-14
8.02851e-06
-1.2265e-14
8.72664e-06
5.37462e-15
9.42478e-06
-4.45676e-15
1.01229e-05
1.43044e-14
1.0821e-05
7.32348e-15
1.15192e-05
-7.04119e-15
1.22173e-05
-2.3996e-14
1.29154e-05
7.55239e-15
1.36136e-05
-9.80195e-15
1.43117e-05
1.62368e-14
1.50098e-05
-4.02968e-14
1.5708e-05
-1.44479e-14
1.64061e-05
1.37037e-14
1.71042e-05
7.89479e-15
1.78024e-05
3.92458e-14
1.85005e-05
-4.27584e-14
1.91986e-05
8.84813e-15
1.98967e-05
2.05949e-05
-9.39896e-15
4.53785e-06
-5.20774e-16
5.23599e-06
-7.52884e-15
5.93412e-06
4.41122e-15
6.63225e-06
-3.78375e-15
7.33038e-06
-1.33856e-14
8.02851e-06
2.10898e-15
8.72664e-06
-8.52966e-15
9.42478e-06
1.00259e-14
1.01229e-05
-1.86755e-15
1.0821e-05
2.02011e-14
1.15192e-05
7.01083e-15
1.22173e-05
-7.51326e-15
1.29154e-05
-2.36112e-14
1.36136e-05
2.04089e-15
1.43117e-05
-1.48347e-14
1.50098e-05
1.38772e-14
1.5708e-05
-2.3949e-15
1.64061e-05
-2.04123e-14
1.71042e-05
7.01432e-15
1.78024e-05
-1.20697e-14
1.85005e-05
2.59366e-14
1.91986e-05
-1.84984e-15
1.98967e-05
2.05949e-05
1.13358e-14
4.53785e-06
4.80647e-16
5.23599e-06
5.35665e-15
5.93412e-06
1.13026e-14
6.63225e-06
-4.86968e-15
7.33038e-06
1.10822e-15
8.02851e-06
8.15659e-15
8.72664e-06
-1.30449e-14
9.42478e-06
-5.95085e-15
1.01229e-05
1.99478e-15
1.0821e-05
-2.43887e-14
1.15192e-05
-1.61915e-14
1.22173e-05
3.27845e-14
1.29154e-05
3.04964e-15
1.36136e-05
1.44376e-14
1.43117e-05
2.68981e-14
1.50098e-05
-7.74272e-15
1.5708e-05
4.4329e-15
1.64061e-05
1.79959e-14
1.71042e-05
-2.18244e-14
1.78024e-05
-8.21936e-15
1.85005e-05
6.07975e-15
1.91986e-05
-3.89239e-14
1.98967e-05
2.05949e-05
1.36915e-16
9.81747e-07
2.42018e-16
1.37445e-06
3.7696e-16
1.76715e-06
-1.33934e-15
2.15984e-06
-3.68157e-15
2.55254e-06
2.94524e-06
5.95091e-15
1.81006e-18
9.81747e-07
-3.88853e-16
1.37445e-06
-2.60415e-15
1.76715e-06
1.94348e-15
2.15984e-06
8.06618e-15
2.55254e-06
2.94524e-06
-9.03012e-15
-1.16501e-16
9.81747e-07
1.86348e-16
1.37445e-06
-1.56237e-15
1.76715e-06
-4.2126e-15
2.15984e-06
-7.49855e-15
2.55254e-06
2.94524e-06
7.72219e-16
8.69188e-17
9.81747e-07
-1.01932e-16
1.37445e-06
2.69302e-15
1.76715e-06
7.44267e-15
2.15984e-06
3.25969e-15
2.55254e-06
2.94524e-06
-2.79815e-15
-4.83994e-17
9.81747e-07
3.95046e-17
1.37445e-06
1.94274e-16
1.76715e-06
-1.80623e-15
2.15984e-06
-4.20867e-15
2.55254e-06
2.94524e-06
5.01317e-15
-1.80126e-16
9.81747e-07
4.30268e-18
1.37445e-06
-1.84786e-15
1.76715e-06
-3.8862e-15
2.15984e-06
3.15694e-15
2.55254e-06
2.94524e-06
4.97989e-16
2.53969e-16
9.81747e-07
2.55406e-16
1.37445e-06
2.06585e-15
1.76715e-06
4.50405e-15
2.15984e-06
-2.3101e-15
2.55254e-06
2.94524e-06
5.40696e-16
2.16343e-17
9.81747e-07
-3.21752e-16
1.37445e-06
-1.14889e-15
1.76715e-06
-5.28577e-15
2.15984e-06
-3.76821e-16
2.55254e-06
2.94524e-06
-5.64008e-15
-1.43406e-16
9.81747e-07
1.66307e-16
1.37445e-06
4.19105e-15
1.76715e-06
6.34923e-15
2.15984e-06
-8.05803e-16
2.55254e-06
2.94524e-06
8.39205e-16
-6.8822e-17
9.81747e-07
-9.21442e-17
1.37445e-06
-2.76946e-15
1.76715e-06
-3.68915e-16
2.15984e-06
-1.45111e-15
2.55254e-06
2.94524e-06
-1.7693e-16
1.66311e-16
9.81747e-07
-8.87725e-17
1.37445e-06
5.69606e-16
1.76715e-06
-2.10359e-15
2.15984e-06
9.65967e-15
2.55254e-06
2.94524e-06
5.2899e-15
-1.77814e-16
9.81747e-07
-2.05914e-17
1.37445e-06
-3.4552e-16
1.76715e-06
-4.17273e-15
2.15984e-06
-2.62262e-15
2.55254e-06
2.94524e-06
5.36919e-15
1.77754e-16
9.81747e-07
2.05123e-17
1.37445e-06
3.45477e-16
1.76715e-06
4.17256e-15
2.15984e-06
2.62216e-15
2.55254e-06
2.94524e-06
-5.3697e-15
-1.66358e-16
9.81747e-07
8.86497e-17
1.37445e-06
-5.69682e-16
1.76715e-06
2.10339e-15
2.15984e-06
-9.6603e-15
2.55254e-06
2.94524e-06
-5.29046e-15
6.87978e-17
9.81747e-07
9.19946e-17
1.37445e-06
2.7693e-15
1.76715e-06
3.68685e-16
2.15984e-06
1.45065e-15
2.55254e-06
2.94524e-06
1.76429e-16
1.43391e-16
9.81747e-07
-1.66462e-16
1.37445e-06
-4.19121e-15
1.76715e-06
-6.34948e-15
2.15984e-06
8.05502e-16
2.55254e-06
2.94524e-06
-8.39528e-16
-2.17036e-17
9.81747e-07
3.21652e-16
1.37445e-06
1.14879e-15
1.76715e-06
5.28553e-15
2.15984e-06
3.76588e-16
2.55254e-06
2.94524e-06
5.6398e-15
-2.53992e-16
9.81747e-07
-2.5546e-16
1.37445e-06
-2.06599e-15
1.76715e-06
-4.50418e-15
2.15984e-06
2.30996e-15
2.55254e-06
2.94524e-06
-5.40905e-16
1.80072e-16
9.81747e-07
-4.38072e-18
1.37445e-06
1.84774e-15
1.76715e-06
3.88605e-15
2.15984e-06
-3.15703e-15
2.55254e-06
2.94524e-06
-4.98285e-16
4.83399e-17
9.81747e-07
-3.95786e-17
1.37445e-06
-1.94388e-16
1.76715e-06
1.80604e-15
2.15984e-06
4.20855e-15
2.55254e-06
2.94524e-06
-5.01352e-15
-8.69758e-17
9.81747e-07
1.0188e-16
1.37445e-06
-2.69326e-15
1.76715e-06
-7.44293e-15
2.15984e-06
-3.25986e-15
2.55254e-06
2.94524e-06
2.79763e-15
1.1644e-16
9.81747e-07
-1.86407e-16
1.37445e-06
1.56224e-15
1.76715e-06
4.2124e-15
2.15984e-06
7.49845e-15
2.55254e-06
2.94524e-06
-7.72595e-16
-1.87626e-18
9.81747e-07
3.88692e-16
1.37445e-06
2.60404e-15
1.76715e-06
-1.9437e-15
2.15984e-06
-8.06626e-15
2.55254e-06
2.94524e-06
9.0298e-15
-1.36985e-16
-2.42133e-16
-3.7714e-16
1.33919e-15
3.68138e-15
-5.95144e-15
-1.13361e-14
4.53785e-06
-4.81513e-16
5.23599e-06
-5.35736e-15
5.93412e-06
-1.13045e-14
6.63225e-06
4.868e-15
7.33038e-06
-1.10985e-15
8.02851e-06
-8.15944e-15
8.72664e-06
1.30437e-14
9.42478e-06
5.94797e-15
1.01229e-05
-1.99763e-15
1.0821e-05
2.43847e-14
1.15192e-05
1.61875e-14
1.22173e-05
-3.2788e-14
1.29154e-05
-3.05276e-15
1.36136e-05
-1.44443e-14
1.43117e-05
-2.6903e-14
1.50098e-05
7.73674e-15
1.5708e-05
-4.43942e-15
1.64061e-05
-1.80066e-14
1.71042e-05
2.18199e-14
1.78024e-05
8.20632e-15
1.85005e-05
-6.08613e-15
1.91986e-05
3.89172e-14
1.98967e-05
2.05949e-05
9.39882e-15
4.53785e-06
5.19857e-16
5.23599e-06
7.52819e-15
5.93412e-06
-4.41205e-15
6.63225e-06
3.78253e-15
7.33038e-06
1.33834e-14
8.02851e-06
-2.11047e-15
8.72664e-06
8.52846e-15
9.42478e-06
-1.00279e-14
1.01229e-05
1.86546e-15
1.0821e-05
-2.02042e-14
1.15192e-05
-7.01453e-15
1.22173e-05
7.50975e-15
1.29154e-05
2.36104e-14
1.36136e-05
-2.04621e-15
1.43117e-05
1.48332e-14
1.50098e-05
-1.38786e-14
1.5708e-05
2.3903e-15
1.64061e-05
2.04083e-14
1.71042e-05
-7.02014e-15
1.78024e-05
1.20631e-14
1.85005e-05
-2.59432e-14
1.91986e-05
1.84057e-15
1.98967e-05
2.05949e-05
-8.67628e-15
4.53785e-06
1.2292e-14
5.23599e-06
1.88289e-15
5.93412e-06
8.90204e-15
6.63225e-06
-5.1088e-15
7.33038e-06
-2.19928e-14
8.02851e-06
1.22636e-14
8.72664e-06
-5.37432e-15
9.42478e-06
4.45611e-15
1.01229e-05
-1.43053e-14
1.0821e-05
-7.32671e-15
1.15192e-05
7.03869e-15
1.22173e-05
2.39938e-14
1.29154e-05
-7.55468e-15
1.36136e-05
9.7997e-15
1.43117e-05
-1.62384e-14
1.50098e-05
4.02949e-14
1.5708e-05
1.44457e-14
1.64061e-05
-1.37062e-14
1.71042e-05
-7.89508e-15
1.78024e-05
-3.92542e-14
1.85005e-05
4.27496e-14
1.91986e-05
-8.85213e-15
1.98967e-05
2.05949e-05
5.98581e-15
4.53785e-06
2.18616e-16
5.23599e-06
-6.4359e-15
5.93412e-06
6.0635e-15
6.63225e-06
-2.09319e-15
7.33038e-06
1.61761e-14
8.02851e-06
-1.88322e-14
8.72664e-06
-2.35073e-15
9.42478e-06
9.17094e-15
1.01229e-05
-4.71122e-15
1.0821e-05
2.16262e-14
1.15192e-05
-2.96459e-14
1.22173e-05
-9.29134e-15
1.29154e-05
-1.89107e-14
1.36136e-05
4.4666e-15
1.43117e-05
3.01537e-14
1.50098e-05
-2.62207e-14
1.5708e-05
4.34432e-16
1.64061e-05
-2.11754e-14
1.71042e-05
1.87112e-14
1.78024e-05
-3.92458e-15
1.85005e-05
-2.91622e-14
1.91986e-05
1.52299e-14
1.98967e-05
2.05949e-05
6.71481e-15
4.53785e-06
-7.30701e-15
5.23599e-06
1.11004e-14
5.93412e-06
-4.24186e-15
6.63225e-06
1.51015e-14
7.33038e-06
-5.20994e-15
8.02851e-06
1.70119e-14
8.72664e-06
-3.94176e-15
9.42478e-06
-2.94399e-16
1.01229e-05
6.61073e-15
1.0821e-05
1.37032e-14
1.15192e-05
1.01831e-14
1.22173e-05
1.82163e-14
1.29154e-05
1.43636e-14
1.36136e-05
2.3339e-14
1.43117e-05
-2.53462e-14
1.50098e-05
2.907e-14
1.5708e-05
-7.8313e-15
1.64061e-05
3.54173e-14
1.71042e-05
-4.5153e-15
1.78024e-05
4.2369e-14
1.85005e-05
-5.87643e-16
1.91986e-05
-8.73933e-15
1.98967e-05
2.05949e-05
-4.63054e-15
4.53785e-06
5.7974e-15
5.23599e-06
-1.6151e-14
5.93412e-06
-5.97491e-15
6.63225e-06
-8.55576e-15
7.33038e-06
4.22371e-15
8.02851e-06
-8.1876e-15
8.72664e-06
6.99838e-15
9.42478e-06
-2.42311e-14
1.01229e-05
-7.77139e-15
1.0821e-05
-2.27652e-14
1.15192e-05
8.34773e-15
1.22173e-05
-7.40517e-15
1.29154e-05
2.82636e-14
1.36136e-05
-4.5709e-14
1.43117e-05
-8.22478e-15
1.50098e-05
-2.82275e-14
1.5708e-05
-2.34324e-15
1.64061e-05
-6.94454e-15
1.71042e-05
2.21473e-14
1.78024e-05
-3.41137e-14
1.85005e-05
-3.7457e-15
1.91986e-05
-3.23546e-14
1.98967e-05
2.05949e-05
-8.92522e-15
4.53785e-06
-2.28932e-15
5.23599e-06
-2.22434e-15
5.93412e-06
6.61548e-15
6.63225e-06
-3.38823e-15
7.33038e-06
-3.90746e-15
8.02851e-06
-6.41845e-15
8.72664e-06
-7.15895e-15
9.42478e-06
6.80998e-15
1.01229e-05
6.98108e-15
1.0821e-05
-9.06564e-15
1.15192e-05
6.75818e-15
1.22173e-05
-2.88906e-14
1.29154e-05
-1.2236e-14
1.36136e-05
4.80403e-15
1.43117e-05
2.50239e-14
1.50098e-05
3.85678e-15
1.5708e-05
3.60477e-15
1.64061e-05
-2.04851e-14
1.71042e-05
-2.17633e-14
1.78024e-05
3.46685e-15
1.85005e-05
2.90383e-14
1.91986e-05
-1.66748e-15
1.98967e-05
2.05949e-05
6.21555e-15
4.53785e-06
-3.87961e-15
5.23599e-06
1.54216e-14
5.93412e-06
-7.06538e-15
6.63225e-06
-2.21169e-15
7.33038e-06
1.42881e-15
8.02851e-06
-5.49322e-15
8.72664e-06
1.32258e-14
9.42478e-06
6.04501e-15
1.01229e-05
-1.74524e-14
1.0821e-05
2.08854e-14
1.15192e-05
-2.14464e-14
1.22173e-05
1.91337e-14
1.29154e-05
-7.31757e-15
1.36136e-05
3.84868e-14
1.43117e-05
-1.29255e-14
1.50098e-05
-1.88644e-15
1.5708e-05
5.71525e-15
1.64061e-05
-7.58524e-15
1.71042e-05
2.76549e-14
1.78024e-05
1.40953e-14
1.85005e-05
-5.31436e-14
1.91986e-05
3.9081e-14
1.98967e-05
2.05949e-05
-1.49869e-15
4.53785e-06
1.08966e-14
5.23599e-06
-6.5996e-15
5.93412e-06
7.26508e-15
6.63225e-06
6.17427e-15
7.33038e-06
2.48813e-15
8.02851e-06
-9.65874e-16
8.72664e-06
-4.3655e-15
9.42478e-06
-8.90215e-15
1.01229e-05
1.38625e-14
1.0821e-05
1.06889e-14
1.15192e-05
6.24965e-15
1.22173e-05
-1.2722e-16
1.29154e-05
-3.43941e-15
1.36136e-05
-1.10462e-14
1.43117e-05
-1.77679e-14
1.50098e-05
1.76806e-14
1.5708e-05
9.95251e-15
1.64061e-05
3.32706e-15
1.71042e-05
-3.29718e-14
1.78024e-05
-1.04243e-14
1.85005e-05
3.0063e-14
1.91986e-05
-5.99924e-14
1.98967e-05
2.05949e-05
5.16977e-15
4.53785e-06
-7.4557e-15
5.23599e-06
-7.57032e-16
5.93412e-06
6.83934e-15
6.63225e-06
-9.97495e-15
7.33038e-06
-1.66477e-15
8.02851e-06
9.21758e-15
8.72664e-06
-1.34594e-14
9.42478e-06
2.32203e-14
1.01229e-05
1.04717e-14
1.0821e-05
-1.72741e-14
1.15192e-05
-3.02813e-15
1.22173e-05
1.13962e-14
1.29154e-05
-1.98173e-14
1.36136e-05
-4.67921e-15
1.43117e-05
5.03058e-14
1.50098e-05
-2.40465e-14
1.5708e-05
-6.65909e-15
1.64061e-05
1.4257e-14
1.71042e-05
1.6458e-15
1.78024e-05
-6.81496e-15
1.85005e-05
1.44401e-14
1.91986e-05
5.07561e-14
1.98967e-05
2.05949e-05
-6.19778e-15
4.53785e-06
2.83873e-17
5.23599e-06
1.15117e-14
5.93412e-06
-2.06266e-14
6.63225e-06
5.36649e-15
7.33038e-06
1.22093e-15
8.02851e-06
-4.73756e-17
8.72664e-06
1.23921e-14
9.42478e-06
-1.32269e-14
1.01229e-05
-1.88963e-14
1.0821e-05
-4.96634e-15
1.15192e-05
-7.15394e-15
1.22173e-05
-1.48882e-14
1.29154e-05
3.53388e-14
1.36136e-05
-3.90633e-18
1.43117e-05
-4.3139e-14
1.50098e-05
1.35617e-14
1.5708e-05
-2.82569e-14
1.64061e-05
2.44989e-15
1.71042e-05
-1.02471e-14
1.78024e-05
2.38001e-14
1.85005e-05
1.38684e-14
1.91986e-05
-4.55677e-14
1.98967e-05
2.05949e-05
-1.90701e-15
4.53785e-06
1.13033e-15
5.23599e-06
-2.16624e-14
5.93412e-06
9.62386e-15
6.63225e-06
1.5137e-14
7.33038e-06
-1.40662e-14
8.02851e-06
8.09253e-15
8.72664e-06
-2.69613e-14
9.42478e-06
-1.96658e-15
1.01229e-05
2.97156e-14
1.0821e-05
-1.1748e-14
1.15192e-05
1.98661e-14
1.22173e-05
-2.74469e-14
1.29154e-05
-2.06179e-14
1.36136e-05
1.60371e-14
1.43117e-05
-4.61462e-15
1.50098e-05
4.68785e-15
1.5708e-05
4.79693e-14
1.64061e-05
-1.37439e-14
1.71042e-05
3.23701e-14
1.78024e-05
-3.51907e-14
1.85005e-05
-2.49101e-14
1.91986e-05
7.1913e-14
1.98967e-05
2.05949e-05
1.90632e-15
4.53785e-06
-1.13113e-15
5.23599e-06
2.16614e-14
5.93412e-06
-9.6242e-15
6.63225e-06
-1.51382e-14
7.33038e-06
1.40644e-14
8.02851e-06
-8.09288e-15
8.72664e-06
2.69585e-14
9.42478e-06
1.96344e-15
1.01229e-05
-2.97186e-14
1.0821e-05
1.17446e-14
1.15192e-05
-1.98687e-14
1.22173e-05
2.74425e-14
1.29154e-05
2.06128e-14
1.36136e-05
-1.60458e-14
1.43117e-05
4.61254e-15
1.50098e-05
-4.69387e-15
1.5708e-05
-4.79705e-14
1.64061e-05
1.37371e-14
1.71042e-05
-3.23715e-14
1.78024e-05
3.51819e-14
1.85005e-05
2.48964e-14
1.91986e-05
-7.1921e-14
1.98967e-05
2.05949e-05
6.19693e-15
4.53785e-06
-2.87828e-17
5.23599e-06
-1.1512e-14
5.93412e-06
2.06254e-14
6.63225e-06
-5.36745e-15
7.33038e-06
-1.22291e-15
8.02851e-06
4.65917e-17
8.72664e-06
-1.23941e-14
9.42478e-06
1.32253e-14
1.01229e-05
1.88933e-14
1.0821e-05
4.96219e-15
1.15192e-05
7.1521e-15
1.22173e-05
1.48857e-14
1.29154e-05
-3.53414e-14
1.36136e-05
-2.23316e-18
1.43117e-05
4.31351e-14
1.50098e-05
-1.35663e-14
1.5708e-05
2.82539e-14
1.64061e-05
-2.45945e-15
1.71042e-05
1.02388e-14
1.78024e-05
-2.38074e-14
1.85005e-05
-1.38779e-14
1.91986e-05
4.55609e-14
1.98967e-05
2.05949e-05
-5.1705e-15
4.53785e-06
7.45526e-15
5.23599e-06
7.56384e-16
5.93412e-06
-6.84031e-15
6.63225e-06
9.97341e-15
7.33038e-06
1.66371e-15
8.02851e-06
-9.22e-15
8.72664e-06
1.34591e-14
9.42478e-06
-2.32229e-14
1.01229e-05
-1.04732e-14
1.0821e-05
1.72707e-14
1.15192e-05
3.02554e-15
1.22173e-05
-1.14004e-14
1.29154e-05
1.98134e-14
1.36136e-05
4.67569e-15
1.43117e-05
-5.03105e-14
1.50098e-05
2.40437e-14
1.5708e-05
6.65485e-15