/*--------------------------------*- C++ -*----------------------------------*\
  =========                 |
  \\      /  F ield         | OpenFOAM: The Open Source CFD Toolbox
   \\    /   O peration     | Website:  https://openfoam.org
    \\  /    A nd           | Version:  11
     \\/     M anipulation  |
\*---------------------------------------------------------------------------*/
FoamFile
{
    format      ascii;
    class       volScalarField;
    location    "1.22";
    object      p;
}
// * * * * * * * * * * * * * * * * * * * * * * * * * * * * * * * * * * * * * //

dimensions      [0 2 -2 0 0 0 0];

internalField   nonuniform List<scalar> 
2880
(
-0.665633
-0.665456
-0.691793
-0.72679
-0.764757
-0.822154
-0.670967
-0.673416
-0.703514
-0.740315
-0.769216
-0.812594
-0.676084
-0.682154
-0.715469
-0.752963
-0.773786
-0.800001
-0.681158
-0.690789
-0.726459
-0.764894
-0.782992
-0.800715
-0.687057
-0.699712
-0.736723
-0.775995
-0.797137
-0.813318
-0.693664
-0.709059
-0.746527
-0.786267
-0.812059
-0.830819
-0.700475
-0.718446
-0.755658
-0.795401
-0.82514
-0.847159
-0.707012
-0.727388
-0.763792
-0.803046
-0.835527
-0.860199
-0.712894
-0.735506
-0.770701
-0.808997
-0.843039
-0.869807
-0.717847
-0.742547
-0.776283
-0.813229
-0.847662
-0.875696
-0.721723
-0.748374
-0.780543
-0.815845
-0.849504
-0.877655
-0.724512
-0.752933
-0.783532
-0.816991
-0.848852
-0.875812
-0.72628
-0.75629
-0.785437
-0.816823
-0.846118
-0.870762
-0.727197
-0.758441
-0.786537
-0.815589
-0.841976
-0.863226
-0.727493
-0.759524
-0.786952
-0.813792
-0.836968
-0.854135
-0.727418
-0.75977
-0.786725
-0.812152
-0.831615
-0.844493
-0.727213
-0.759399
-0.786148
-0.811082
-0.826946
-0.835108
-0.727073
-0.758675
-0.785622
-0.810515
-0.824509
-0.826681
-0.72712
-0.757924
-0.785397
-0.81074
-0.824667
-0.821367
-0.727396
-0.757539
-0.785696
-0.812262
-0.827438
-0.82349
-0.727927
-0.757985
-0.786736
-0.815244
-0.833439
-0.835158
-0.728835
-0.759706
-0.788478
-0.819166
-0.842288
-0.85352
-0.730478
-0.762559
-0.789891
-0.82178
-0.852741
-0.881103
-0.73211
-0.764203
-0.789012
-0.820795
-0.864906
-1.01537
-0.388677
-0.195572
-0.0854774
-0.0052842
0.0568018
0.103071
0.13589
0.159028
0.175675
0.188134
0.197895
0.20584
0.21247
0.218079
0.222847
0.22689
0.230299
0.233149
0.235411
0.236717
0.236932
0.239764
0.254378
0.263172
-0.546418
-0.392015
-0.239949
-0.125852
-0.0425859
0.0193684
0.0646969
0.0976291
0.121911
0.14037
0.154924
0.166787
0.176697
0.185107
0.192305
0.198489
0.2038
0.208352
0.212192
0.215102
0.216742
0.218981
0.229503
0.247618
-0.634499
-0.53734
-0.373419
-0.239735
-0.139852
-0.0641875
-0.00708997
0.0354515
0.0674192
0.0920107
0.111508
0.12743
0.140751
0.152094
0.161872
0.170372
0.177808
0.184357
0.190141
0.195061
0.198758
0.202466
0.212564
0.226978
-0.714141
-0.63547
-0.483174
-0.344005
-0.232814
-0.145662
-0.0780544
-0.0264562
0.0129888
0.0436564
0.0680954
0.0880879
0.104827
0.119103
0.131449
0.142239
0.151746
0.160175
0.167607
0.173844
0.178791
0.185053
0.198031
0.194065
-0.782286
-0.704521
-0.575152
-0.43852
-0.32031
-0.223769
-0.147081
-0.0871895
-0.0406592
-0.00412408
0.0251281
0.0490849
0.0691302
0.0862052
0.100946
0.113787
0.125022
0.134836
0.143244
0.149982
0.155187
0.162271
0.175998
0.164815
-0.832239
-0.759953
-0.653929
-0.52338
-0.401495
-0.297634
-0.213204
-0.145919
-0.0928435
-0.0507718
-0.0169354
0.010795
0.0339611
0.0536379
0.0705582
0.085209
0.0979051
0.10883
0.118001
0.125207
0.130754
0.138222
0.151838
0.13948
-0.866181
-0.808455
-0.720691
-0.598258
-0.475571
-0.366533
-0.275647
-0.201952
-0.142956
-0.0957507
-0.0576205
-0.0263563
-0.000292984
0.0217661
0.0406479
0.0569023
0.0708811
0.0827967
0.0927164
0.100534
0.106681
0.114546
0.127817
0.116484
-0.889098
-0.849982
-0.775215
-0.662464
-0.541654
-0.429636
-0.333642
-0.254539
-0.190351
-0.138508
-0.0964288
-0.0619029
-0.0331832
-0.00896661
0.0116689
0.0293467
0.0444752
0.0573189
0.0680145
0.0765679
0.0834755
0.0917717
0.104686
0.0955146
-0.903617
-0.882589
-0.817585
-0.715469
-0.59889
-0.485954
-0.386348
-0.302896
-0.23437
-0.178472
-0.132831
-0.0953418
-0.0642197
-0.0380691
-0.0158758
0.00306452
0.0192322
0.0329581
0.0444535
0.0538215
0.0615669
0.0703245
0.0829383
0.0765727
-0.910866
-0.904812
-0.848407
-0.756749
-0.646269
-0.53443
-0.432861
-0.346299
-0.27431
-0.215078
-0.166298
-0.126163
-0.0929028
-0.0650383
-0.0414722
-0.0214191
-0.00431877
0.0102341
0.0225241
0.0327323
0.0413348
0.0505656
0.0629403
0.0596989
-0.911724
-0.915912
-0.868379
-0.786032
-0.682888
-0.574057
-0.472184
-0.383928
-0.309598
-0.247665
-0.196218
-0.153807
-0.118717
-0.0893741
-0.0646215
-0.0436052
-0.0256872
-0.0103871
0.0026498
0.0136686
0.0231012
0.0327983
0.0449994
0.0449545
-0.906996
-0.916261
-0.877594
-0.803524
-0.708047
-0.603987
-0.503688
-0.414611
-0.339355
-0.27548
-0.222053
-0.177749
-0.141178
-0.11061
-0.0848666
-0.0630437
-0.0444362
-0.0284958
-0.0148025
-0.00305655
0.00714067
0.0172817
0.0293701
0.0323828
-0.897417
-0.907448
-0.875734
-0.809564
-0.721411
-0.623356
-0.526338
-0.438241
-0.36249
-0.29765
-0.243017
-0.197696
-0.159941
-0.128363
-0.101823
-0.0793574
-0.0601993
-0.0437463
-0.0295226
-0.0171754
-0.00631284
0.0042262
0.0162253
0.0219707
-0.883819
-0.891531
-0.863558
-0.804519
-0.723324
-0.631773
-0.539381
-0.453707
-0.378689
-0.314099
-0.25868
-0.212915
-0.17455
-0.142276
-0.11517
-0.0922453
-0.0726907
-0.0558683
-0.0412602
-0.0284628
-0.017083
-0.00622309
0.00567108
0.0136578
-0.868041
-0.869722
-0.842936
-0.789355
-0.714829
-0.629741
-0.542732
-0.460678
-0.38755
-0.324224
-0.269431
-0.22303
-0.184543
-0.152033
-0.124676
-0.101507
-0.0817267
-0.0646886
-0.0498497
-0.0367686
-0.0250513
-0.0139723
-0.00223832
0.00736766
-0.850589
-0.84477
-0.816304
-0.766071
-0.697508
-0.61857
-0.537131
-0.459421
-0.389108
-0.327533
-0.274253
-0.228606
-0.189944
-0.157598
-0.130292
-0.107091
-0.0872614
-0.0701653
-0.0552502
-0.042052
-0.0301706
-0.0190216
-0.00753543
0.00304988
-0.83294
-0.818423
-0.786135
-0.737272
-0.673343
-0.59997
-0.523934
-0.450756
-0.383856
-0.324637
-0.273148
-0.228783
-0.190996
-0.15908
-0.132041
-0.109037
-0.0893586
-0.0723791
-0.0575523
-0.0444075
-0.0325389
-0.0214626
-0.0103372
0.000560849
-0.816477
-0.792344
-0.754683
-0.705562
-0.644588
-0.575926
-0.504797
-0.436013
-0.37271
-0.316262
-0.266883
-0.224166
-0.187593
-0.156482
-0.130034
-0.107496
-0.0881922
-0.0715263
-0.0569726
-0.0440686
-0.0324069
-0.0215503
-0.0109327
-0.000326364
-0.802085
-0.767864
-0.723841
-0.673244
-0.613556
-0.548546
-0.481625
-0.416845
-0.357005
-0.303417
-0.256345
-0.215487
-0.180354
-0.150332
-0.124733
-0.102879
-0.0841471
-0.0679788
-0.0538795
-0.0414068
-0.0301685
-0.019731
-0.00978333
0.000121576
-0.789555
-0.745739
-0.695013
-0.641863
-0.58278
-0.519986
-0.456362
-0.395039
-0.338354
-0.287487
-0.24271
-0.203774
-0.170214
-0.141454
-0.116872
-0.0958554
-0.0778391
-0.0623117
-0.048818
-0.0369431
-0.0263329
-0.0165393
-0.00752189
0.00143938
-0.779252
-0.726336
-0.669281
-0.61324
-0.553765
-0.492198
-0.430906
-0.372372
-0.318413
-0.270016
-0.227413
-0.190348
-0.158367
-0.130919
-0.107424
-0.0873233
-0.0701031
-0.0553037
-0.042517
-0.0313651
-0.0215553
-0.0126361
-0.00482239
0.00305345
-0.77268
-0.709324
-0.647027
-0.588382
-0.528025
-0.466895
-0.40701
-0.350515
-0.298777
-0.252524
-0.211895
-0.176597
-0.146154
-0.12001
-0.0976082
-0.0784291
-0.0620115
-0.0479506
-0.0358912
-0.0255013
-0.0165543
-0.00860121
-0.00209544
0.00439821
-0.769852
-0.691769
-0.627577
-0.56772
-0.50661
-0.44541
-0.386239
-0.331001
-0.280868
-0.236353
-0.19744
-0.163773
-0.134815
-0.10998
-0.0886965
-0.0704497
-0.0548126
-0.041457
-0.030111
-0.0204875
-0.012376
-0.00541876
-2.53161e-05
0.00483889
-0.758664
-0.668926
-0.610002
-0.551234
-0.490006
-0.428631
-0.36967
-0.315064
-0.265903
-0.222593
-0.185026
-0.152761
-0.125185
-0.101657
-0.0815707
-0.0643881
-0.0496478
-0.0370028
-0.0262626
-0.017317
-0.0100369
-0.00415175
0.000270029
0.00336463
-0.67788
-0.681391
-0.672927
-0.654101
-0.593018
-0.468747
-0.67338
-0.679384
-0.671951
-0.65696
-0.614219
-0.547328
-0.664745
-0.676165
-0.669757
-0.658045
-0.628779
-0.593098
-0.660204
-0.674284
-0.66944
-0.660805
-0.641478
-0.621094
-0.664843
-0.674866
-0.671384
-0.666044
-0.653888
-0.64129
-0.674692
-0.677422
-0.675202
-0.672825
-0.666095
-0.658102
-0.681181
-0.680812
-0.680144
-0.680408
-0.678107
-0.673716
-0.684592
-0.684182
-0.685683
-0.688404
-0.690006
-0.689072
-0.687732
-0.687266
-0.691431
-0.696561
-0.701795
-0.704419
-0.690636
-0.690058
-0.697137
-0.704659
-0.713368
-0.719706
-0.693514
-0.692469
-0.702566
-0.712482
-0.724533
-0.734674
-0.696012
-0.694407
-0.707523
-0.719812
-0.735035
-0.748892
-0.697788
-0.695802
-0.711888
-0.726455
-0.744591
-0.761807
-0.698686
-0.696648
-0.71558
-0.732319
-0.752868
-0.772823
-0.698696
-0.696736
-0.718596
-0.737358
-0.759594
-0.78136
-0.697942
-0.69588
-0.720978
-0.741585
-0.764656
-0.786938
-0.699726
-0.69428
-0.722902
-0.745071
-0.768173
-0.789524
-0.704403
-0.694293
-0.724683
-0.748007
-0.770466
-0.789848
-0.707025
-0.695545
-0.726238
-0.750596
-0.772151
-0.789188
-0.706642
-0.696561
-0.727225
-0.752896
-0.774328
-0.789437
-0.705068
-0.696472
-0.727055
-0.754855
-0.777904
-0.79666
-0.699385
-0.694342
-0.725157
-0.755994
-0.783168
-0.821937
-0.690811
-0.690746
-0.722314
-0.755981
-0.788777
-0.86008
-0.686643
-0.688446
-0.72141
-0.756879
-0.793653
-0.883047
-0.678006
-0.645846
-0.595173
-0.538713
-0.478043
-0.416658
-0.357689
-0.303269
-0.254546
-0.211896
-0.175186
-0.143928
-0.117461
-0.0950849
-0.0761464
-0.0600925
-0.0464476
-0.0348175
-0.0249377
-0.0167087
-0.0101247
-0.00516814
-0.00187302
-0.000340793
-0.64847
-0.627844
-0.58468
-0.530222
-0.470142
-0.408738
-0.349604
-0.295094
-0.246375
-0.203884
-0.16752
-0.136777
-0.110968
-0.0893655
-0.0712714
-0.0561343
-0.0434443
-0.0328128
-0.0240152
-0.0168665
-0.0112374
-0.00722894
-0.00527439
-0.00475489
-0.644755
-0.619747
-0.579533
-0.525882
-0.465815
-0.403899
-0.344103
-0.289004
-0.239851
-0.197076
-0.160564
-0.129835
-0.104225
-0.0830235
-0.065603
-0.051347
-0.0397142
-0.0302694
-0.0226168
-0.0164751
-0.0117468
-0.00866054
-0.00785786
-0.00718814
-0.647118
-0.619574
-0.579542
-0.526018
-0.465032
-0.401706
-0.340399
-0.283923
-0.233639
-0.189972
-0.152805
-0.121665
-0.0959309
-0.0749415
-0.0580057
-0.0443608
-0.0334357
-0.0247729
-0.0180254
-0.0128835
-0.00913099
-0.00665781
-0.00517312
-0.00260334
-0.652918
-0.625229
-0.585088
-0.530832
-0.467897
-0.402106
-0.338302
-0.279558
-0.227371
-0.182183
-0.14383
-0.111782
-0.0853409
-0.0637657
-0.0463119
-0.0323805
-0.0214666
-0.0131114
-0.0068783
-0.00242388
0.000571514
0.00281416
0.0051629
0.00663209
-0.662179
-0.635873
-0.596107
-0.540344
-0.474486
-0.405085
-0.337675
-0.275698
-0.220818
-0.173501
-0.133526
-0.100302
-0.0730492
-0.0509881
-0.0333938
-0.0196188
-0.00909707
-0.0013226
0.0041574
0.00774912
0.00986679
0.0110311
0.0124659
0.0115784
-0.674641
-0.651087
-0.612024
-0.554496
-0.484759
-0.4105
-0.338261
-0.272065
-0.213784
-0.163887
-0.122052
-0.0875456
-0.0594895
-0.0370464
-0.0194566
-0.00602388
0.00386459
0.0107378
0.015064
0.0172573
0.0177232
0.017136
0.0163733
0.0132554
-0.68982
-0.670291
-0.632594
-0.57308
-0.49844
-0.418104
-0.340022
-0.268996
-0.207028
-0.154474
-0.110838
-0.0752215
-0.0466374
-0.0241202
-0.0067933
0.00612471
0.0153065
0.0213187
0.0246474
0.0257203
0.0249298
0.0229404
0.0202668
0.0157747
-0.70715
-0.692969
-0.657491
-0.595751
-0.515132
-0.427462
-0.342639
-0.26629
-0.200514
-0.145585
-0.100693
-0.0646025
-0.0360887
-0.0140159
0.00265738
0.0148204
0.0232171
0.0284848
0.0311448
0.0316007
0.0301388
0.0274836
0.0235402
0.0195066
-0.725961
-0.718481
-0.686122
-0.62183
-0.533829
-0.43708
-0.344735
-0.262807
-0.193734
-0.137225
-0.0918885
-0.0560592
-0.0282181
-0.00701821
0.00875812
0.0200394
0.027537
0.0320689
0.0343405
0.0347104
0.0330972
0.0299205
0.0235389
0.0203983
-0.745435
-0.74592
-0.717451
-0.650048
-0.552701
-0.446634
-0.346546
-0.259817
-0.188431
-0.13131
-0.0863816
-0.0515407
-0.0249514
-0.00508085
0.00965677
0.0201613
0.0265713
0.0298052
0.0313543
0.0316825
0.0307727
0.0295803
0.0262131
0.0241961
-0.764547
-0.774051
-0.749777
-0.677951
-0.571858
-0.456518
-0.350108
-0.26004
-0.187632
-0.130908
-0.0870328
-0.0534591
-0.0281359
-0.00966409
0.00395065
0.0145795
0.0227779
0.0283869
0.0309323
0.030961
0.0292378
0.0265957
0.0238212
0.0266902
-0.782079
-0.801177
-0.780082
-0.703469
-0.589139
-0.466472
-0.355905
-0.264406
-0.192222
-0.136369
-0.0933813
-0.0603978
-0.0351641
-0.015675
-0.00137878
0.00878692
0.016585
0.0224512
0.0260381
0.0275159
0.0274815
0.0267787
0.0265844
0.0315216
-0.796982
-0.82506
-0.803851
-0.722325
-0.600367
-0.472941
-0.360706
-0.26952
-0.19847
-0.143665
-0.101322
-0.0684705
-0.0428608
-0.0228763
-0.00755234
0.00379263
0.0125123
0.019171
0.0237323
0.0270224
0.0294725
0.0312699
0.0344141
0.0382651
-0.808226
-0.842494
-0.816808
-0.729105
-0.600732
-0.470997
-0.359812
-0.270332
-0.201139
-0.14777
-0.10619
-0.0735664
-0.0477872
-0.027227
-0.0107191
0.00210957
0.0118297
0.0192575
0.0253164
0.0303254
0.0338867
0.0367449
0.0416382
0.0439402
-0.814614
-0.85094
-0.816289
-0.719703
-0.586845
-0.45791
-0.350188
-0.263918
-0.197261
-0.145825
-0.105385
-0.0732303
-0.0474919
-0.026771
-0.00997845
0.00369765
0.0143643
0.0227727
0.0297528
0.0351015
0.0392798
0.0436752
0.0512016
0.0518902
-0.816035
-0.84327
-0.801636
-0.693672
-0.55813
-0.433116
-0.330559
-0.250116
-0.186749
-0.137439
-0.0985533
-0.0673626
-0.0421266
-0.0215864
-0.00479626
0.00894467
0.0201593
0.029242
0.0366091
0.0425758
0.0475374
0.0533505
0.0636373
0.0635016
-0.813008
-0.816666
-0.770357
-0.6521
-0.516461
-0.397529
-0.302631
-0.228427
-0.169381
-0.122842
-0.0859061
-0.0560979
-0.0317755
-0.0117986
0.00469182
0.0183375
0.0296245
0.0389763
0.0467469
0.0531693
0.0586671
0.0656713
0.0785356
0.0769114
-0.803685
-0.776234
-0.72068
-0.596032
-0.46431
-0.353416
-0.267034
-0.199304
-0.145356
-0.102409
-0.0679736
-0.0399732
-0.0169427
0.00213585
0.0180186
0.0312888
0.0424024
0.0517245
0.059562
0.0661095
0.0718183
0.0796218
0.0942253
0.0904457
-0.782467
-0.731951
-0.655473
-0.527335
-0.403089
-0.302664
-0.224801
-0.16397
-0.115605
-0.076784
-0.0453294
-0.0195296
0.00186372
0.01974
0.034756
0.0474119
0.0580981
0.0671344
0.0747896
0.0812022
0.0868346
0.0950682
0.110893
0.104725
-0.737336
-0.684137
-0.577612
-0.447721
-0.334196
-0.245391
-0.177137
-0.123828
-0.0813371
-0.0469555
-0.0188024
0.00451739
0.024028
0.0404736
0.054406
0.0662443
0.0763157
0.0848919
0.0921928
0.0982922
0.103654
0.112055
0.12874
0.120135
-0.66797
-0.61118
-0.482377
-0.357735
-0.258524
-0.183034
-0.125262
-0.0799628
-0.0435963
-0.0138808
0.0107238
0.0313239
0.0487324
0.0635479
0.0762151
0.087069
0.0963709
0.10434
0.111136
0.116762
0.121683
0.129999
0.147176
0.136411
-0.587473
-0.487515
-0.363368
-0.25823
-0.177862
-0.117215
-0.0705449
-0.0335317
-0.00341791
0.0215246
0.0424508
0.0601872
0.0753457
0.088384
0.0996449
0.109386
0.117807
0.125074
0.131276
0.136334
0.140709
0.148765
0.166195
0.153797
-0.46204
-0.317087
-0.226206
-0.152997
-0.0951041
-0.0500734
-0.0145829
0.0142098
0.0381428
0.0583452
0.0755777
0.0903995
0.103237
0.114418
0.12419
0.13274
0.140211
0.146721
0.152289
0.156738
0.160516
0.168176
0.185664
0.17247
0.831121
0.851858
0.883585
0.919541
0.897075
0.680285
0.832421
0.848802
0.868848
0.886046
0.817475
0.662187
0.833115
0.844494
0.853984
0.858988
0.788952
0.651333
0.832688
0.839973
0.842829
0.840205
0.776552
0.656689
0.831611
0.836134
0.835201
0.828309
0.772854
0.669929
0.830232
0.833105
0.830088
0.82134
0.773174
0.683373
0.828644
0.830683
0.826682
0.817582
0.774796
0.695369
0.826891
0.828617
0.82446
0.815611
0.776811
0.705854
0.825031
0.826758
0.823034
0.814627
0.779026
0.715201
0.823133
0.825014
0.822108
0.814286
0.781547
0.723744
0.821271
0.823345
0.821515
0.814451
0.784486
0.731647
0.819521
0.821749
0.821234
0.815001
0.787592
0.739169
0.81797
0.820247
0.821111
0.816002
0.79112
0.746323
0.816702
0.818881
0.821114
0.817423
0.795089
0.75309
0.815758
0.817724
0.821213
0.819199
0.799457
0.759464
0.815138
0.816879
0.821352
0.821256
0.804076
0.765467
0.814947
0.816405
0.821436
0.823457
0.808727
0.771056
0.815282
0.816382
0.82138
0.825467
0.813066
0.775786
0.815857
0.816766
0.821144
0.826608
0.816483
0.778754
0.814919
0.817191
0.820566
0.826025
0.818391
0.779275
0.81197
0.817071
0.819185
0.823117
0.818965
0.779089
0.812393
0.816539
0.816491
0.817937
0.819002
0.780871
0.817518
0.815816
0.812704
0.811649
0.816098
0.751499
0.820456
0.814828
0.808769
0.804137
0.789974
0.551367
-0.117059
-0.144983
-0.0932345
-0.0498026
-0.0139621
0.0160404
0.0410021
0.0620631
0.0801238
0.0957612
0.109383
0.121312
0.131811
0.141093
0.149323
0.156626
0.163101
0.168822
0.173753
0.177622
0.180821
0.187959
0.205258
0.1926
0.126742
0.00971213
0.0258536
0.0451091
0.062545
0.0794349
0.0950372
0.109107
0.12175
0.133098
0.143271
0.152395
0.16059
0.167969
0.174626
0.180638
0.186069
0.190965
0.195264
0.198661
0.201437
0.207932
0.224572
0.214934
0.282326
0.149528
0.131593
0.130191
0.133228
0.139357
0.146849
0.15468
0.162407
0.169806
0.176758
0.183219
0.189188
0.194691
0.199759
0.204424
0.208723
0.212693
0.216303
0.219312
0.221781
0.226942
0.241541
0.243202
0.393059
0.262742
0.221909
0.205375
0.197524
0.195003
0.195691
0.198163
0.201585
0.205457
0.209478
0.21347
0.217337
0.221024
0.224502
0.227754
0.230775
0.233583
0.236189
0.238408
0.239721
0.240641
0.248262
0.284577
0.471427
0.351174
0.298317
0.271218
0.255252
0.246072
0.241286
0.23928
0.239003
0.239784
0.241192
0.242951
0.244886
0.246876
0.248833
0.250686
0.252383
0.253907
0.255215
0.255933
0.255404
0.255895
0.268565
0.291192
0.528141
0.41962
0.362062
0.328526
0.306845
0.292633
0.283516
0.277844
0.274464
0.272601
0.27174
0.271537
0.271759
0.272237
0.272839
0.273454
0.274001
0.274439
0.274649
0.274099
0.272415
0.273804
0.289622
0.298998
0.570053
0.473391
0.415395
0.3783
0.352736
0.33484
0.322398
0.313808
0.307886
0.303811
0.301023
0.299139
0.297889
0.297069
0.296515
0.296093
0.295706
0.295298
0.294707
0.293347
0.291115
0.293169
0.310383
0.313335
0.601961
0.516378
0.460145
0.421522
0.393507
0.373009
0.358081
0.347219
0.339259
0.333371
0.328983
0.325692
0.323208
0.321304
0.319796
0.318532
0.317404
0.316346
0.31517
0.313271
0.310702
0.313038
0.330701
0.330419
0.627133
0.551378
0.49796
0.459157
0.429741
0.407489
0.390765
0.378182
0.368623
0.361281
0.35559
0.351146
0.347649
0.344859
0.34258
0.340645
0.338937
0.337385
0.335785
0.333524
0.330746
0.333193
0.350826
0.348784
0.64763
0.580412
0.530244
0.492009
0.462006
0.438666
0.420696
0.406844
0.396058
0.387572
0.38084
0.375468
0.371155
0.367656
0.364763
0.362301
0.360146
0.35822
0.35631
0.353805
0.350912
0.353386
0.370662
0.367656
0.664796
0.604936
0.558069
0.52091
0.490854
0.466923
0.448131
0.433372
0.421666
0.412295
0.404745
0.398639
0.393682
0.389625
0.386254
0.383385
0.380891
0.378689
0.376559
0.373902
0.370974
0.373421
0.390075
0.386595
0.679685
0.626028
0.582334
0.546548
0.516791
0.492622
0.473328
0.457943
0.44556
0.435516
0.427334
0.420657
0.415198
0.410711
0.406974
0.4038
0.401053
0.398652
0.396374
0.39364
0.390743
0.393118
0.408928
0.405297
0.69268
0.644466
0.603765
0.569502
0.54027
0.516102
0.496533
0.480732
0.467859
0.457309
0.448643
0.441526
0.435684
0.43087
0.42686
0.423459
0.420532
0.417992
0.415621
0.412871
0.410056
0.412318
0.4271
0.423537
0.704109
0.660829
0.622935
0.590265
0.561687
0.537671
0.517977
0.501905
0.48868
0.47775
0.468713
0.461259
0.455125
0.450066
0.445855
0.442293
0.439239
0.436608
0.434188
0.431467
0.428773
0.430883
0.444485
0.441137
0.714178
0.675561
0.640324
0.609262
0.581396
0.557608
0.537872
0.521621
0.508136
0.496912
0.487585
0.479869
0.473512
0.468271
0.463915
0.460238
0.4571
0.454412
0.451974
0.449317
0.446771
0.448692
0.460994
0.457954
0.723022
0.689032
0.656355
0.626873
0.59971
0.576164
0.556411
0.540022
0.526329
0.514865
0.5053
0.497371
0.490838
0.485458
0.480995
0.477239
0.474044
0.471324
0.46889
0.466321
0.463938
0.465637
0.476556
0.473873
0.730732
0.701575
0.671414
0.643454
0.616911
0.593565
0.573767
0.557238
0.543351
0.531668
0.521891
0.513776
0.507094
0.501602
0.497056
0.493242
0.490009
0.487271
0.484854
0.482388
0.480175
0.481625
0.491112
0.488805
0.737433
0.713527
0.685875
0.65933
0.633267
0.610007
0.590095
0.573381
0.55928
0.547373
0.537383
0.529089
0.522267
0.516674
0.512058
0.508195
0.504934
0.502183
0.499789
0.497433
0.49539
0.496576
0.504621
0.502678
0.743387
0.725251
0.700127
0.674801
0.649019
0.625673
0.605526
0.588547
0.574181
0.562016
0.551793
0.543307
0.536338
0.530642
0.525956
0.522047
0.518757
0.515995
0.513623
0.511377
0.509507
0.510441
0.51708
0.515417
0.749279
0.737177
0.714538
0.690161
0.664371
0.640717
0.620165
0.602811
0.588098
0.575619
0.565124
0.556417
0.549283
0.54347
0.538704
0.534741
0.531416
0.528636
0.526281
0.52414
0.522452
0.523191
0.528476
0.526803
0.756425
0.749803
0.729489
0.705709
0.67951
0.655258
0.634089
0.616212
0.601056
0.588184
0.577363
0.568396
0.561066
0.555113
0.550249
0.546217
0.542841
0.540026
0.537665
0.535602
0.534068
0.534618
0.538567
0.536688
0.765061
0.764306
0.745668
0.721787
0.694609
0.669375
0.647333
0.628751
0.613039
0.599694
0.588482
0.579207
0.571645
0.565523
0.560538
0.556416
0.552969
0.550095
0.547703
0.545678
0.544212
0.544447
0.547173
0.545583
0.772352
0.784514
0.764373
0.738728
0.709741
0.683066
0.659858
0.640381
0.623988
0.610095
0.598433
0.588801
0.580968
0.574648
0.56952
0.56529
0.561757
0.558813
0.556379
0.554373
0.552927
0.552807
0.554518
0.553479
0.791847
0.815847
0.786162
0.756378
0.72471
0.696155
0.67153
0.650997
0.63381
0.619299
0.607142
0.597114
0.588977
0.582432
0.577139
0.572787
0.569158
0.566136
0.563655
0.561659
0.560228
0.559826
0.560724
0.560069
1.11079
1.09033
1.07456
1.07104
1.13109
1.27311
1.11401
1.09364
1.07655
1.06888
1.1041
1.15697
1.11651
1.09919
1.08056
1.06969
1.08786
1.09474
1.11668
1.1029
1.08312
1.06967
1.07428
1.06049
1.11519
1.10368
1.08335
1.06746
1.06194
1.03974
1.11274
1.10246
1.08185
1.06392
1.05101
1.02506
1.10958
1.10031
1.0793
1.0598
1.0414
1.01319
1.10592
1.0979
1.07623
1.0554
1.03281
1.00297
1.10206
1.09566
1.07303
1.05089
1.02494
0.99368
1.09844
1.09389
1.06999
1.04642
1.01749
0.984681
1.09551
1.0928
1.06734
1.04208
1.01021
0.975484
1.09364
1.09258
1.06525
1.03794
1.00294
0.965713
1.09307
1.09338
1.06381
1.03409
0.99553
0.955022
1.0939
1.09517
1.06317
1.03059
0.987883
0.943098
1.09605
1.09802
1.06334
1.02757
0.979914
0.929635
1.09933
1.10177
1.06432
1.02509
0.971569
0.914017
1.10343
1.10608
1.06603
1.02321
0.96289
0.896094
1.1079
1.11056
1.0683
1.02199
0.953954
0.875489
1.11226
1.11472
1.07086
1.02156
0.944956
0.852036
1.116
1.11812
1.07355
1.02242
0.936441
0.825896
1.11878
1.12076
1.07699
1.02601
0.929865
0.798456
1.1209
1.12374
1.08295
1.03442
0.928347
0.774249
1.12349
1.12808
1.09206
1.04586
0.935018
0.760894
1.12637
1.13132
1.09791
1.04733
0.952209
0.761152
0.896957
0.850055
0.808412
0.773717
0.738944
0.708277
0.682112
0.660434
0.642385
0.627204
0.614516
0.604067
0.595601
0.588808
0.583332
0.578846
0.575112
0.572007
0.569471
0.567469
0.566039
0.565417
0.565698
0.565339
0.94297
0.880462
0.828463
0.789143
0.751619
0.718971
0.691315
0.668497
0.649571
0.6337
0.620462
0.609573
0.600762
0.593705
0.588035
0.583404
0.57956
0.576369
0.573773
0.571748
0.570305
0.569522
0.569387
0.569237
0.955252
0.898752
0.843849
0.801616
0.762098
0.727823
0.698858
0.674985
0.655217
0.638671
0.624886
0.613552
0.604385
0.597053
0.591179
0.586399
0.582443
0.579165
0.576505
0.574441
0.572969
0.572086
0.571747
0.571716
0.959055
0.908102
0.854253
0.810706
0.770008
0.734536
0.704504
0.679713
0.65918
0.642003
0.627695
0.615927
0.606404
0.598791
0.592705
0.587771
0.583704
0.580341
0.577614
0.575499
0.573982
0.573061
0.572735
0.572736
0.959624
0.912082
0.860354
0.81646
0.775211
0.738934
0.708081
0.682528
0.661327
0.643584
0.628796
0.616619
0.606751
0.598857
0.592557
0.587469
0.583291
0.579846
0.577053
0.57487
0.573293
0.572415
0.572319
0.572242
0.95811
0.912679
0.862928
0.819124
0.777713
0.740936
0.709478
0.683312
0.661547
0.643316
0.628102
0.615553
0.60536
0.597196
0.590685
0.585443
0.581159
0.577638
0.574779
0.57252
0.570873
0.5701
0.570453
0.570212
0.955156
0.910735
0.862533
0.818949
0.77758
0.740512
0.708622
0.681977
0.65975
0.64111
0.625534
0.612658
0.602173
0.593756
0.587041
0.581651
0.577266
0.573677
0.570758
0.568415
0.566692
0.566097
0.56711
0.566605
0.950765
0.906629
0.85952
0.816118
0.774872
0.737652
0.70546
0.678447
0.655857
0.636889
0.621019
0.607871
0.597134
0.58849
0.581588
0.576058
0.57158
0.567932
0.56496
0.562532
0.560736
0.560402
0.562292
0.561364
0.944849
0.900512
0.854061
0.81073
0.769617
0.732329
0.699933
0.67265
0.64979
0.630581
0.61449
0.601133
0.590193
0.581358
0.574291
0.568636
0.564074
0.560374
0.557356
0.554842
0.552956
0.552904
0.555887
0.554639
0.93729
0.892356
0.846165
0.802773
0.761772
0.724482
0.691968
0.664508
0.641473
0.622112
0.605883
0.592388
0.581304
0.572323
0.565123
0.55936
0.554726
0.550981
0.547918
0.545305
0.543284
0.543466
0.547704
0.546432
0.927909
0.881977
0.835673
0.79212
0.751219
0.714
0.681463
0.653926
0.63082
0.611406
0.595131
0.581581
0.570423
0.561355
0.554061
0.548219
0.543526
0.539744
0.536638
0.533912
0.531711
0.53208
0.537675
0.536566
0.91643
0.869037
0.822282
0.778532
0.737759
0.700718
0.668281
0.640788
0.617732
0.598382
0.582168
0.568659
0.557514
0.548427
0.541097
0.535214
0.530491
0.52669
0.523552
0.520716
0.518341
0.518955
0.525967
0.524696
0.902438
0.853036
0.80556
0.761661
0.72111
0.684407
0.652245
0.624955
0.602098
0.582951
0.566926
0.553574
0.542542
0.533524
0.526228
0.520359
0.515647
0.511857
0.508712
0.505787
0.50326
0.504166
0.512666
0.511096
0.885326
0.833299
0.784922
0.74102
0.700887
0.664768
0.633127
0.606257
0.58379
0.565019
0.549338
0.53628
0.525481
0.516635
0.509459
0.503674
0.499025
0.49529
0.492172
0.489189
0.486533
0.487741
0.497754
0.495868
0.864242
0.808951
0.759578
0.715946
0.676591
0.641424
0.610651
0.584498
0.562669
0.544489
0.52934
0.516739
0.506314
0.497762
0.490808
0.48519
0.480671
0.477042
0.473997
0.470996
0.468243
0.469755
0.481263
0.479077
0.838218
0.778878
0.728494
0.685597
0.647605
0.613924
0.584494
0.559459
0.538586
0.521265
0.506874
0.494924
0.48504
0.476922
0.470307
0.464953
0.460643
0.457183
0.454265
0.451301
0.448496
0.45031
0.463257
0.460817
0.805607
0.741514
0.690323
0.64895
0.613194
0.581751
0.554301
0.530906
0.511396
0.495259
0.481897
0.470825
0.461673
0.454152
0.448013
0.443035
0.439023
0.435805
0.433075
0.430212
0.427413
0.429527
0.443823
0.441211
0.764419
0.694713
0.643391
0.604799
0.57252
0.544338
0.519693
0.498593
0.480955
0.466398
0.454385
0.444456
0.436258
0.429517
0.424008
0.419532
0.41592
0.413025
0.410554
0.407863
0.405139
0.407553
0.423064
0.4204
0.71182
0.6355
0.585772
0.551811
0.524673
0.501095
0.480293
0.462292
0.447144
0.434636
0.424345
0.415862
0.408868
0.403117
0.398411
0.394578
0.391481
0.389
0.386863
0.384421
0.381849
0.384557
0.401109
0.398551
0.643938
0.560105
0.515365
0.488605
0.46876
0.451467
0.435772
0.421822
0.409888
0.399974
0.391827
0.38513
0.379619
0.375089
0.371378
0.368348
0.365894
0.363927
0.362207
0.360095
0.357755
0.360741
0.378109
0.375861
0.556289
0.463918
0.429937
0.41388
0.403997
0.395
0.385896
0.377091
0.369183
0.362471
0.356933
0.352393
0.348668
0.345612
0.343108
0.341058
0.339392
0.338055
0.336843
0.335145
0.333115
0.336342
0.354242
0.352574
0.441437
0.34171
0.327512
0.326635
0.32988
0.331471
0.330595
0.328123
0.325114
0.32226
0.319828
0.317835
0.316218
0.314907
0.313842
0.312968
0.312253
0.311678
0.311079
0.30989
0.308244
0.311635
0.329707
0.329042
0.275345
0.188291
0.206164
0.226312
0.246342
0.261009
0.27005
0.275126
0.277892
0.279563
0.280741
0.281694
0.282515
0.283232
0.283852
0.284372
0.284797
0.285144
0.285291
0.284725
0.283546
0.286991
0.304754
0.305706
0.00712967
0.00938361
0.0684645
0.114597
0.154454
0.184359
0.204809
0.218514
0.227904
0.23471
0.239974
0.244255
0.247835
0.250865
0.253429
0.255582
0.257371
0.25884
0.259913
0.260139
0.259547
0.262865
0.279657
0.283297
)
;

boundaryField
{
    rotor
    {
        type            zeroGradient;
    }
    freestream
    {
        type            freestreamPressure;
        freestreamValue uniform 0;
        supersonic      false;
        value           nonuniform List<scalar> 
96
(
0.148204
0.131096
0.11278
0.0903264
0.0715569
0.0562561
0.0434743
0.0328607
0.0241911
0.0172526
0.0118383
0.00774049
0.00474792
0.00265729
0.00128482
0.000474298
7.73011e-05
-3.95495e-05
1.28124e-05
0.000129919
0.000231259
0.000272916
0.000240974
0.000133947
-1.1103e-05
-0.000129152
-0.000148131
-2.76478e-05
1.54495e-05
4.23597e-06
7.48204e-05
0.000231352
0.000488839
0.00074227
0.00119871
0.00173621
0.00261875
0.00397194
0.0055368
0.00772351
0.0109731
0.01521
0.0202364
0.0262776
0.0335679
0.0421613
0.0522564
0.0640553
0.0777668
0.0938609
0.114308
0.143284
0.156023
0.170536
0.189486
0.210984
0.234204
0.258618
0.283834
0.30951
0.335332
0.360999
0.386223
0.410735
0.434279
0.45662
0.477522
0.496616
0.513605
0.528834
0.54218
0.553243
0.561916
0.568076
0.571627
0.5725
0.570636
0.56603
0.558689
0.548625
0.536076
0.521154
0.503824
0.483925
0.4619
0.438037
0.412605
0.385903
0.358258
0.330014
0.301527
0.273164
0.245307
0.218382
0.192819
0.169161
)
;
    }
    frontAndBack
    {
        type            empty;
    }
}


// ************************************************************************* //
