/*--------------------------------*- C++ -*----------------------------------*\
  =========                 |
  \\      /  F ield         | OpenFOAM: The Open Source CFD Toolbox
   \\    /   O peration     | Website:  https://openfoam.org
    \\  /    A nd           | Version:  11
     \\/     M anipulation  |
\*---------------------------------------------------------------------------*/
FoamFile
{
    format      ascii;
    class       surfaceScalarField;
    location    "1.22";
    object      phi;
}
// * * * * * * * * * * * * * * * * * * * * * * * * * * * * * * * * * * * * * //

dimensions      [0 3 -1 0 0 0 0];

internalField   nonuniform List<scalar> 
5640
(
6.59041e-07
-6.59041e-07
1.81201e-06
-1.15297e-06
3.19103e-06
-1.37902e-06
4.65931e-06
-1.46828e-06
5.71613e-06
-1.05682e-06
-8.88878e-07
6.60501e-06
9.21403e-07
-1.58044e-06
2.0895e-06
-2.32107e-06
3.39923e-06
-2.68875e-06
4.66466e-06
-2.73371e-06
5.60358e-06
-1.99574e-06
-1.26715e-06
5.98185e-06
9.78115e-07
-2.55856e-06
2.06335e-06
-3.4063e-06
3.24569e-06
-3.87109e-06
4.34082e-06
-3.82884e-06
5.15215e-06
-2.80707e-06
-1.40809e-06
5.29309e-06
9.47311e-07
-3.50587e-06
1.92573e-06
-4.38472e-06
2.97279e-06
-4.91816e-06
3.95158e-06
-4.80762e-06
4.72896e-06
-3.58445e-06
-1.61277e-06
4.93364e-06
8.59321e-07
-4.36519e-06
1.71902e-06
-5.24441e-06
2.63311e-06
-5.83225e-06
3.51273e-06
-5.68724e-06
4.30401e-06
-4.37574e-06
-2.09918e-06
4.79042e-06
7.36319e-07
-5.10151e-06
1.46811e-06
-5.9762e-06
2.24992e-06
-6.61406e-06
3.03986e-06
-6.47719e-06
3.8491e-06
-5.18498e-06
-2.82014e-06
4.57006e-06
5.93054e-07
-5.69456e-06
1.18996e-06
-6.57311e-06
1.83751e-06
-7.26161e-06
2.53559e-06
-7.17527e-06
3.33696e-06
-5.98635e-06
-3.67317e-06
4.18999e-06
4.38534e-07
-6.1331e-06
8.96038e-07
-7.03061e-06
1.40561e-06
-7.77118e-06
2.00166e-06
-7.77132e-06
2.76125e-06
-6.74593e-06
-4.58896e-06
3.67704e-06
2.78871e-07
-6.41197e-06
5.94703e-07
-7.34644e-06
9.6183e-07
-8.13831e-06
1.44216e-06
-8.25165e-06
2.12845e-06
-7.43222e-06
-5.51093e-06
3.05042e-06
1.18725e-07
-6.53069e-06
2.92732e-07
-7.52045e-06
5.13146e-07
-8.35872e-06
8.63194e-07
-8.6017e-06
1.44811e-06
-8.01714e-06
-6.39014e-06
2.32732e-06
-3.81961e-08
-6.4925e-06
-4.13308e-09
-7.55452e-06
6.65815e-08
-8.42943e-06
2.72921e-07
-8.80804e-06
7.31633e-07
-8.47585e-06
-7.18378e-06
1.52528e-06
-1.84962e-07
-6.30754e-06
-2.89666e-07
-7.44981e-06
-3.69908e-07
-8.34919e-06
-3.18791e-07
-8.85916e-06
-6.52841e-09
-8.78811e-06
-7.85408e-06
6.63774e-07
-3.20883e-07
-5.98665e-06
-5.58363e-07
-7.21233e-06
-7.88538e-07
-8.11902e-06
-9.00166e-07
-8.74753e-06
-7.53656e-07
-8.93462e-06
-8.37427e-06
-2.33471e-07
-4.41582e-07
-5.54507e-06
-8.03703e-07
-6.85021e-06
-1.18103e-06
-7.74169e-06
-1.45811e-06
-8.47044e-06
-1.48805e-06
-8.90468e-06
-8.72401e-06
-1.13831e-06
-5.43857e-07
-5.00121e-06
-1.0192e-06
-6.37486e-06
-1.53765e-06
-7.22324e-06
-1.98042e-06
-8.02767e-06
-2.19152e-06
-8.69359e-06
-8.89091e-06
-2.02461e-06
-6.24524e-07
-4.37669e-06
-1.19876e-06
-5.80063e-06
-1.84761e-06
-6.57439e-06
-2.45435e-06
-7.42094e-06
-2.84461e-06
-8.30333e-06
-8.86864e-06
-2.86688e-06
-6.8066e-07
-3.69603e-06
-1.33789e-06
-5.1434e-06
-2.09923e-06
-5.81305e-06
-2.86235e-06
-6.65782e-06
-3.43082e-06
-7.73485e-06
-8.66009e-06
-3.63938e-06
-7.09571e-07
-2.98646e-06
-1.4324e-06
-4.42057e-06
-2.28208e-06
-4.96337e-06
-3.18526e-06
-5.75464e-06
-3.93531e-06
-6.98481e-06
-8.27949e-06
-4.31591e-06
-7.08669e-07
-2.27779e-06
-1.47791e-06
-3.65133e-06
-2.38865e-06
-4.05263e-06
-3.40276e-06
-4.74053e-06
-4.3299e-06
-6.05767e-06
-7.72566e-06
-4.88373e-06
-6.75464e-07
-1.60233e-06
-1.47045e-06
-2.85635e-06
-2.40932e-06
-3.11375e-06
-3.49635e-06
-3.65351e-06
-4.58272e-06
-4.9713e-06
-6.96731e-06
-5.34106e-06
-6.07675e-07
-9.94651e-07
-1.40582e-06
-2.0582e-06
-2.33249e-06
-2.18709e-06
-3.44459e-06
-2.5414e-06
-4.6706e-06
-3.74529e-06
-5.95872e-06
-5.67919e-06
-5.0329e-07
-4.91362e-07
-1.27828e-06
-1.28321e-06
-2.1435e-06
-1.32187e-06
-3.20942e-06
-1.47548e-06
-4.5474e-06
-2.40731e-06
-4.65142e-06
-5.8547e-06
-3.55732e-07
-1.35629e-07
-1.07184e-06
-5.67107e-07
-1.815e-06
-5.78708e-07
-2.71368e-06
-5.76799e-07
-4.10649e-06
-1.01451e-06
-2.92248e-06
-5.83542e-06
-1.35629e-07
-7.02736e-07
-1.28144e-06
-1.85824e-06
-2.87275e-06
-5.79523e-06
1.26723e-05
2.12684e-05
-2.73356e-05
1.21195e-05
3.49737e-05
-3.44209e-05
1.09473e-05
3.87601e-05
-3.75879e-05
9.68271e-06
3.98678e-05
-3.86032e-05
8.31896e-06
3.97281e-05
-3.83643e-05
6.92806e-06
3.87909e-05
-3.74e-05
5.58942e-06
3.74411e-05
-3.61025e-05
4.34974e-06
3.59558e-05
-3.47161e-05
3.22093e-06
3.4484e-05
-3.33552e-05
2.19314e-06
3.30767e-05
-3.20489e-05
1.24886e-06
3.17323e-05
-3.0788e-05
3.71066e-07
3.04324e-05
-2.95547e-05
-4.53761e-07
2.91585e-05
-2.83336e-05
-1.23603e-06
2.78961e-05
-2.71138e-05
-1.98323e-06
2.66343e-05
-2.58871e-05
-2.7009e-06
2.53644e-05
-2.46468e-05
-3.39314e-06
2.40788e-05
-2.33865e-05
-4.06296e-06
2.27696e-05
-2.20998e-05
-4.71241e-06
2.14282e-05
-2.07788e-05
-5.34259e-06
2.00446e-05
-1.94144e-05
-5.95406e-06
1.86066e-05
-1.79952e-05
-6.54801e-06
1.70966e-05
-1.65027e-05
-7.11716e-06
1.54641e-05
-1.48949e-05
1.35892e-05
-1.31417e-05
1.08673e-05
1.63829e-05
1.22135e-05
3.36275e-05
1.18865e-05
3.90871e-05
1.10536e-05
4.07007e-05
9.9945e-06
4.07872e-05
8.83169e-06
3.99537e-05
7.66643e-06
3.86064e-05
6.56673e-06
3.70555e-05
5.56393e-06
3.54868e-05
4.66048e-06
3.39802e-05
3.84412e-06
3.25487e-05
3.09892e-06
3.11776e-05
2.41049e-06
2.98469e-05
1.76756e-06
2.8539e-05
1.16161e-06
2.72402e-05
5.86384e-07
2.59397e-05
3.75005e-08
2.46277e-05
-4.87883e-07
2.3295e-05
-9.91202e-07
2.19315e-05
-1.47218e-06
2.05255e-05
-1.92768e-06
1.90621e-05
-2.35103e-06
1.752e-05
-2.74475e-06
1.58578e-05
1.39565e-05
9.49329e-06
1.21827e-05
1.2045e-05
3.10757e-05
1.25758e-05
3.85564e-05
1.22393e-05
4.10372e-05
1.15384e-05
4.14881e-05
1.06471e-05
4.08449e-05
9.68836e-06
3.95651e-05
8.75088e-06
3.7993e-05
7.88595e-06
3.63518e-05
7.11117e-06
3.4755e-05
6.42263e-06
3.32372e-05
5.80743e-06
3.17928e-05
5.25141e-06
3.04029e-05
4.74222e-06
2.90482e-05
4.27002e-06
2.77124e-05
3.82729e-06
2.63824e-05
3.40864e-06
2.50463e-05
3.01083e-06
2.36928e-05
2.63287e-06
2.23095e-05
2.2767e-06
2.08817e-05
1.95084e-06
1.9388e-05
1.67737e-06
1.77935e-05
1.47594e-06
1.60592e-05
1.42501e-05
8.43834e-06
8.67797e-06
1.17754e-05
2.77387e-05
1.30766e-05
3.72551e-05
1.32624e-05
4.08514e-05
1.29509e-05
4.17996e-05
1.23647e-05
4.14311e-05
1.16423e-05
4.02876e-05
1.08898e-05
3.87455e-05
1.01765e-05
3.70651e-05
9.53617e-06
3.53952e-05
8.97596e-06
3.37974e-05
8.48817e-06
3.22806e-05
8.06002e-06
3.08311e-05
7.6786e-06
2.94296e-05
7.33275e-06
2.80583e-05
7.0135e-06
2.67016e-05
6.71421e-06
2.53456e-05
6.43091e-06
2.39761e-05
6.16318e-06
2.25772e-05
5.91531e-06
2.11296e-05
5.69607e-06
1.96072e-05
5.51198e-06
1.79776e-05
5.36042e-06
1.62108e-05
1.42887e-05
7.61324e-06
5.85514e-06
1.14047e-05
2.39472e-05
1.33993e-05
3.52605e-05
1.41295e-05
4.01212e-05
1.42251e-05
4.1704e-05
1.39696e-05
4.16867e-05
1.35119e-05
4.07452e-05
1.29688e-05
3.92886e-05
1.24239e-05
3.761e-05
1.1927e-05
3.58921e-05
1.14979e-05
3.42265e-05
1.11367e-05
3.26418e-05
1.08339e-05
3.11338e-05
1.05775e-05
2.9686e-05
1.03563e-05
2.82795e-05
1.01612e-05
2.68967e-05
9.98632e-06
2.55205e-05
9.82884e-06
2.41336e-05
9.68991e-06
2.27162e-05
9.57431e-06
2.12452e-05
9.48866e-06
1.96929e-05
9.43871e-06
1.80275e-05
9.43291e-06
1.62166e-05
1.42247e-05
6.90753e-06
3.51767e-06
1.08986e-05
1.99561e-05
1.35223e-05
3.26368e-05
1.48205e-05
3.88231e-05
1.53473e-05
4.11772e-05
1.54472e-05
4.15868e-05
1.52811e-05
4.09113e-05
1.4972e-05
3.95976e-05
1.46152e-05
3.79668e-05
1.42743e-05
3.62331e-05
1.39827e-05
3.45181e-05
1.37501e-05
3.28744e-05
1.35729e-05
3.13111e-05
1.34414e-05
2.98174e-05
1.3346e-05
2.8375e-05
1.32787e-05
2.6964e-05
1.32348e-05
2.55645e-05
1.32126e-05
2.41557e-05
1.32134e-05
2.27153e-05
1.32401e-05
2.12185e-05
1.32954e-05
1.96376e-05
1.33816e-05
1.79413e-05
1.35041e-05
1.60942e-05
1.40522e-05
6.26753e-06
1.44013e-06
1.02361e-05
1.59875e-05
1.3421e-05
2.94519e-05
1.5306e-05
3.69381e-05
1.62949e-05
4.01883e-05
1.67724e-05
4.11093e-05
1.69249e-05
4.07588e-05
1.68779e-05
3.96446e-05
1.67333e-05
3.81115e-05
1.6566e-05
3.64004e-05
1.64226e-05
3.46615e-05
1.63246e-05
3.29724e-05
1.62758e-05
3.136e-05
1.62713e-05
2.98219e-05
1.63039e-05
2.83423e-05
1.63675e-05
2.69005e-05
1.64582e-05
2.54738e-05
1.65747e-05
2.40392e-05
1.67169e-05
2.25731e-05
1.68847e-05
2.10507e-05
1.70772e-05
1.9445e-05
1.72941e-05
1.77245e-05
1.75382e-05
1.58501e-05
1.37695e-05
5.61289e-06
-4.95713e-07
9.41932e-06
1.2181e-05
1.30713e-05
2.57999e-05
1.55429e-05
3.44665e-05
1.70311e-05
3.87001e-05
1.79147e-05
4.02256e-05
1.8415e-05
4.02585e-05
1.86607e-05
3.9399e-05
1.8756e-05
3.80162e-05
1.87849e-05
3.63715e-05
1.88061e-05
3.46402e-05
1.8853e-05
3.29255e-05
1.89389e-05
3.12741e-05
1.90653e-05
2.96954e-05
1.92288e-05
2.81788e-05
1.94252e-05
2.67041e-05
1.96515e-05
2.52475e-05
1.99059e-05
2.37848e-05
2.01866e-05
2.22925e-05
2.04905e-05
2.07467e-05
2.08143e-05
1.91212e-05
2.11554e-05
1.73833e-05
2.15156e-05
1.54899e-05
1.33796e-05
4.90274e-06
-2.34804e-06
8.46409e-06
8.61968e-06
1.2446e-05
2.1818e-05
1.54858e-05
3.14267e-05
1.75113e-05
3.66747e-05
1.88387e-05
3.88982e-05
1.9719e-05
3.93782e-05
2.02899e-05
3.88281e-05
2.06554e-05
3.76507e-05
2.09078e-05
3.61191e-05
2.11156e-05
3.44323e-05
2.13231e-05
3.2718e-05
2.1554e-05
3.10432e-05
2.18177e-05
2.94318e-05
2.21156e-05
2.78809e-05
2.24462e-05
2.63735e-05
2.28074e-05
2.48863e-05
2.31967e-05
2.33954e-05
2.3611e-05
2.18782e-05
2.40451e-05
2.03126e-05
2.44936e-05
1.86726e-05
2.49525e-05
1.69244e-05
2.54224e-05
1.502e-05
1.28885e-05
4.1078e-06
-4.12852e-06
7.3833e-06
5.34418e-06
1.15304e-05
1.7671e-05
1.50939e-05
2.78631e-05
1.76848e-05
3.40839e-05
1.94991e-05
3.70839e-05
2.07955e-05
3.80818e-05
2.17296e-05
3.7894e-05
2.24001e-05
3.69802e-05
2.29042e-05
3.5615e-05
2.33262e-05
3.40103e-05
2.37159e-05
3.23283e-05
2.41071e-05
3.06521e-05
2.45178e-05
2.9021e-05
2.49557e-05
2.7443e-05
2.54225e-05
2.59067e-05
2.59173e-05
2.43915e-05
2.64379e-05
2.28748e-05
2.69802e-05
2.13359e-05
2.75383e-05
1.97545e-05
2.8105e-05
1.81059e-05
2.8675e-05
1.63544e-05
2.92475e-05
1.44475e-05
1.23039e-05
3.20949e-06
-5.81274e-06
6.19391e-06
2.35976e-06
1.03299e-05
1.3535e-05
1.43287e-05
2.38643e-05
1.7492e-05
3.09205e-05
1.98359e-05
3.474e-05
2.15784e-05
3.63392e-05
2.29149e-05
3.65575e-05
2.39631e-05
3.5932e-05
2.47526e-05
3.48255e-05
2.54121e-05
3.33508e-05
2.60077e-05
3.17327e-05
2.65783e-05
3.00815e-05
2.71499e-05
2.84494e-05
2.77364e-05
2.68566e-05
2.83434e-05
2.52997e-05
2.89721e-05
2.37627e-05
2.96211e-05
2.22259e-05
3.02866e-05
2.06704e-05
3.09626e-05
1.90785e-05
3.16412e-05
1.74273e-05
3.23155e-05
1.56802e-05
3.29829e-05
1.37801e-05
1.16346e-05
2.21166e-06
-7.36063e-06
4.91296e-06
-3.41536e-07
8.87884e-06
9.56912e-06
1.31685e-05
1.95746e-05
1.68755e-05
2.72136e-05
1.97858e-05
3.18297e-05
2.20343e-05
3.40907e-05
2.37911e-05
3.48008e-05
2.52281e-05
3.4495e-05
2.64045e-05
3.36491e-05
2.73385e-05
3.24168e-05
2.81668e-05
3.09044e-05
2.89401e-05
2.93082e-05
2.9691e-05
2.76985e-05
3.04391e-05
2.61085e-05
3.11944e-05
2.45444e-05
3.19607e-05
2.29964e-05
3.2738e-05
2.14485e-05
3.35237e-05
1.98846e-05
3.43131e-05
1.82892e-05
3.5098e-05
1.66424e-05
3.58699e-05
1.49083e-05
3.66244e-05
1.30256e-05
1.08901e-05
1.13778e-06
-8.73187e-06
3.56049e-06
-2.76425e-06
7.24811e-06
5.88151e-06
1.16279e-05
1.51948e-05
1.57934e-05
2.30481e-05
1.92787e-05
2.83443e-05
2.20762e-05
3.12932e-05
2.43249e-05
3.25521e-05
2.6157e-05
3.26629e-05
2.7733e-05
3.20731e-05
2.90437e-05
3.11061e-05
3.01438e-05
2.98043e-05
3.11514e-05
2.83006e-05
3.2107e-05
2.67429e-05
3.30361e-05
2.51793e-05
3.39538e-05
2.36267e-05
3.4867e-05
2.20833e-05
3.57777e-05
2.05378e-05
3.66851e-05
1.89773e-05
3.75859e-05
1.73884e-05
3.84736e-05
1.57547e-05
3.93382e-05
1.40436e-05
4.01726e-05
1.21912e-05
1.00799e-05
1.21433e-08
-9.88233e-06
2.16728e-06
-4.91939e-06
5.51838e-06
2.5304e-06
9.7794e-06
1.09338e-05
1.42341e-05
1.85934e-05
1.82515e-05
2.43269e-05
2.16263e-05
2.79184e-05
2.44155e-05
2.97629e-05
2.67259e-05
3.03525e-05
2.86836e-05
3.01153e-05
3.03975e-05
2.93923e-05
3.18612e-05
2.83406e-05
3.31504e-05
2.70114e-05
3.43471e-05
2.55462e-05
3.54859e-05
2.40406e-05
3.65883e-05
2.25244e-05
3.76656e-05
2.10059e-05
3.87226e-05
1.94809e-05
3.976e-05
1.79399e-05
4.07764e-05
1.63719e-05
4.17676e-05
1.47635e-05
4.27236e-05
1.30876e-05
4.36337e-05
1.12812e-05
9.21262e-06
-1.09086e-06
-1.08161e-05
7.74781e-07
-6.78503e-06
3.76224e-06
-4.57052e-07
7.74997e-06
6.94605e-06
1.22586e-05
1.40848e-05
1.66656e-05
1.99199e-05
2.05938e-05
2.39903e-05
2.39554e-05
2.64013e-05
2.68016e-05
2.75063e-05
2.92253e-05
2.76917e-05
3.13419e-05
2.72757e-05
3.32004e-05
2.64821e-05
3.48429e-05
2.53689e-05
3.63341e-05
2.4055e-05
3.77238e-05
2.26508e-05
3.90444e-05
2.12038e-05
4.03137e-05
1.97365e-05
4.15402e-05
1.82545e-05
4.27265e-05
1.67535e-05
4.38728e-05
1.52256e-05
4.49766e-05
1.36597e-05
4.60296e-05
1.20346e-05
4.70176e-05
1.02932e-05
8.29242e-06
-2.16707e-06
-1.15159e-05
-5.76912e-07
-8.37518e-06
2.0437e-06
-3.07766e-06
5.66876e-06
3.32099e-06
1.001e-05
9.74348e-06
1.45753e-05
1.53546e-05
1.89273e-05
1.96383e-05
2.28356e-05
2.2493e-05
2.62466e-05
2.40953e-05
2.92027e-05
2.47355e-05
3.17851e-05
2.46933e-05
3.40782e-05
2.4189e-05
3.61219e-05
2.33252e-05
3.79625e-05
2.22144e-05
3.96553e-05
2.0958e-05
4.12396e-05
1.96195e-05
4.27408e-05
1.82353e-05
4.41726e-05
1.68227e-05
4.55403e-05
1.53858e-05
4.6845e-05
1.3921e-05
4.80845e-05
1.24201e-05
4.92526e-05
1.08665e-05
5.03323e-05
9.21353e-06
7.31301e-06
-3.16924e-06
-1.1986e-05
-1.84679e-06
-9.69764e-06
4.15477e-07
-5.33993e-06
3.63601e-06
1.00459e-07
7.65403e-06
5.72546e-06
1.21347e-05
1.0874e-05
1.66867e-05
1.50862e-05
2.10099e-05
1.81699e-05
2.49458e-05
2.01594e-05
2.84553e-05
2.1226e-05
3.15687e-05
2.15799e-05
3.43503e-05
2.14074e-05
3.68432e-05
2.08323e-05
3.90924e-05
1.99653e-05
4.1148e-05
1.89024e-05
4.30527e-05
1.77148e-05
4.48379e-05
1.64501e-05
4.65234e-05
1.51372e-05
4.81189e-05
1.37902e-05
4.9627e-05
1.24129e-05
5.10455e-05
1.10017e-05
5.23669e-05
9.54505e-06
5.35718e-05
8.00868e-06
6.24999e-06
-4.06692e-06
-1.2235e-05
-2.99742e-06
-1.07671e-05
-1.08264e-06
-7.25471e-06
1.71952e-06
-2.7017e-06
5.32982e-06
2.11516e-06
9.536e-06
6.66781e-06
1.40414e-05
1.05808e-05
1.85577e-05
1.36536e-05
2.28725e-05
1.58446e-05
2.68702e-05
1.72284e-05
3.05149e-05
1.79352e-05
3.38215e-05
1.81008e-05
3.6816e-05
1.78378e-05
3.95341e-05
1.72472e-05
4.20179e-05
1.64185e-05
4.43087e-05
1.5424e-05
4.6441e-05
1.43178e-05
4.84405e-05
1.31378e-05
5.03228e-05
1.19079e-05
5.20944e-05
1.06412e-05
5.37542e-05
9.342e-06
5.52938e-05
8.00542e-06
5.6689e-05
6.61347e-06
5.04654e-06
-4.83476e-06
-1.2284e-05
-3.9975e-06
-1.16044e-05
-2.41952e-06
-8.83269e-06
-3.31908e-08
-5.08804e-06
3.1318e-06
-1.04983e-06
6.94773e-06
2.85188e-06
1.12059e-05
6.32258e-06
1.56738e-05
9.1857e-06
2.01421e-05
1.13763e-05
2.4458e-05
1.29124e-05
2.8532e-05
1.38612e-05
3.2325e-05
1.43078e-05
3.58272e-05
1.43356e-05
3.90492e-05
1.40251e-05
4.20157e-05
1.3452e-05
4.47577e-05
1.2682e-05
4.73067e-05
1.17688e-05
4.969e-05
1.07545e-05
5.19282e-05
9.66977e-06
5.40336e-05
8.53577e-06
5.60098e-05
7.36582e-06
5.78516e-05
6.16365e-06
5.95353e-05
4.92978e-06
3.59833e-06
-5.4409e-06
-1.21841e-05
-4.81999e-06
-1.22253e-05
-3.57153e-06
-1.00811e-05
-1.5972e-06
-7.06236e-06
1.11342e-06
-3.76045e-06
4.48346e-06
-5.18163e-07
8.36774e-06
2.4383e-06
1.25914e-05
4.96203e-06
1.69802e-05
6.98756e-06
2.1384e-05
8.50865e-06
2.56907e-05
9.55446e-06
2.98262e-05
1.01723e-05
3.3746e-05
1.04158e-05
3.74298e-05
1.03414e-05
4.08762e-05
1.00056e-05
4.4097e-05
9.46121e-06
4.71109e-05
8.75494e-06
4.99388e-05
7.92648e-06
5.26004e-05
7.00818e-06
5.51111e-05
6.02507e-06
5.74798e-05
4.99715e-06
5.97077e-05
3.9357e-06
6.17863e-05
2.85117e-06
1.76041e-06
-5.85011e-06
-1.20132e-05
-5.44421e-06
-1.26312e-05
-4.52121e-06
-1.10041e-05
-2.94908e-06
-8.6345e-06
-6.93064e-07
-6.01646e-06
2.20585e-06
-3.41708e-06
5.6499e-06
-1.00575e-06
9.50445e-06
1.10748e-06
1.36311e-05
2.86087e-06
1.79029e-05
4.23693e-06
2.22112e-05
5.24609e-06
2.64715e-05
5.91203e-06
3.06212e-05
6.26604e-06
3.46184e-05
6.34419e-06
3.84393e-05
6.18475e-06
4.20747e-05
5.82584e-06
4.55259e-05
5.30372e-06
4.88009e-05
4.65145e-06
5.19111e-05
3.89799e-06
5.48684e-05
3.06776e-06
5.76834e-05
2.18221e-06
6.03607e-05
1.2583e-06
6.2908e-05
3.03925e-07
-5.97953e-07
-6.04776e-06
-1.18202e-05
-5.85884e-06
-1.28201e-05
-5.25824e-06
-1.16047e-05
-4.08179e-06
-9.81094e-06
-2.27289e-06
-7.82537e-06
1.51733e-07
-5.8417e-06
3.12165e-06
-3.97566e-06
6.53632e-06
-2.3072e-06
1.02841e-05
-8.8686e-07
1.42584e-05
2.62568e-07
1.83654e-05
1.13906e-06
2.25258e-05
1.75171e-06
2.66746e-05
2.11723e-06
3.07622e-05
2.25659e-06
3.47535e-05
2.19343e-06
3.86264e-05
1.95291e-06
4.23694e-05
1.56078e-06
4.59784e-05
1.04245e-06
4.94548e-05
4.21522e-07
5.28033e-05
-2.80724e-07
5.60312e-05
-1.04565e-06
5.91422e-05
-1.8527e-06
6.21478e-05
-2.7017e-06
-3.50693e-06
-5.99972e-06
-1.16559e-05
-6.05632e-06
-1.27635e-05
-5.78537e-06
-1.18757e-05
-4.99148e-06
-1.06048e-05
-3.61088e-06
-9.20597e-06
-1.65129e-06
-7.80129e-06
8.35245e-07
-6.4622e-06
3.77108e-06
-5.24303e-06
7.06679e-06
-4.18257e-06
1.06337e-05
-3.30429e-06
1.43905e-05
-2.61782e-06
1.8266e-05
-2.12372e-06
2.21998e-05
-1.8166e-06
2.61433e-05
-1.68692e-06
3.00587e-05
-1.72198e-06
3.3919e-05
-1.90736e-06
3.77071e-05
-2.22731e-06
4.1414e-05
-2.66446e-06
4.50359e-05
-3.20037e-06
4.8572e-05
-3.81683e-06
5.20254e-05
-4.49902e-06
5.53993e-05
-5.22665e-06
5.87e-05
-6.00242e-06
-6.79059e-06
-5.54179e-06
-1.19093e-05
-6.05066e-06
-1.22547e-05
-6.12942e-06
-1.17969e-05
-5.68656e-06
-1.10477e-05
-4.696e-06
-1.01965e-05
-3.16995e-06
-9.32733e-06
-1.15172e-06
-8.48043e-06
1.29621e-06
-7.69096e-06
4.10191e-06
-6.98827e-06
7.19165e-06
-6.39403e-06
1.04953e-05
-5.92151e-06
1.39496e-05
-5.57801e-06
1.74995e-05
-5.36648e-06
2.10989e-05
-5.28629e-06
2.47104e-05
-5.33354e-06
2.8305e-05
-5.50193e-06
3.18617e-05
-5.78401e-06
3.53687e-05
-6.17148e-06
3.88223e-05
-6.65396e-06
4.22233e-05
-7.21782e-06
4.55738e-05
-7.84953e-06
4.88791e-05
-8.53197e-06
5.21419e-05
-9.26519e-06
-1.00628e-05
-4.59817e-07
4.59817e-07
-1.44418e-06
9.8436e-07
-2.55534e-06
1.11116e-06
-3.43501e-06
8.79671e-07
-3.88391e-06
4.48898e-07
-8.83476e-07
-3.00043e-06
-6.81977e-07
1.14179e-06
-1.66674e-06
1.96912e-06
-2.57441e-06
2.01884e-06
-3.27389e-06
1.57915e-06
-3.53555e-06
7.10551e-07
-1.25785e-06
-3.16117e-06
-7.11337e-07
1.85313e-06
-1.59971e-06
2.85749e-06
-2.38651e-06
2.80564e-06
-2.98101e-06
2.17365e-06
-3.25959e-06
9.8913e-07
-1.19166e-06
-3.32578e-06
-7.0489e-07
2.55802e-06
-1.4821e-06
3.63471e-06
-2.18155e-06
3.50509e-06
-2.72518e-06
2.71728e-06
-3.0724e-06
1.33635e-06
-8.53183e-07
-3.41088e-06
-6.89548e-07
3.24757e-06
-1.35404e-06
4.2992e-06
-1.97506e-06
4.12611e-06
-2.49032e-06
3.23253e-06
-2.9117e-06
1.75773e-06
-3.49246e-07
-3.41564e-06
-6.66755e-07
3.91432e-06
-1.22045e-06
4.8529e-06
-1.76524e-06
4.6709e-06
-2.25984e-06
3.72713e-06
-2.73906e-06
2.23695e-06
2.51673e-07
-3.33998e-06
-6.22573e-07
4.5369e-06
-1.07644e-06
5.30676e-06
-1.54766e-06
5.14213e-06
-2.01947e-06
4.19894e-06
-2.53223e-06
2.74971e-06
8.99881e-07
-3.18044e-06
-5.43578e-07
5.08047e-06
-9.17e-07
5.68018e-06
-1.31777e-06
5.5429e-06
-1.75879e-06
4.63996e-06
-2.2778e-06
3.26871e-06
1.5547e-06
-2.93261e-06
-4.48165e-07
5.52864e-06
-7.42252e-07
5.97427e-06
-1.07265e-06
5.8733e-06
-1.47121e-06
5.03852e-06
-1.96896e-06
3.76646e-06
2.18009e-06
-2.59435e-06
-3.41666e-07
5.87031e-06
-5.53976e-07
6.18658e-06
-8.11122e-07
6.13045e-06
-1.15347e-06
5.38087e-06
-1.60346e-06
4.21645e-06
2.7428e-06
-2.16618e-06
-2.26836e-07
6.09714e-06
-3.53755e-07
6.3135e-06
-5.33247e-07
6.30994e-06
-8.05266e-07
5.65289e-06
-1.18305e-06
4.59424e-06
3.21199e-06
-1.65224e-06
-1.0564e-07
6.20278e-06
-1.43728e-07
6.35159e-06
-2.40075e-07
6.40629e-06
-4.28959e-07
5.84177e-06
-7.13513e-07
4.87879e-06
3.56029e-06
-1.06181e-06
2.09834e-08
6.1818e-06
7.35183e-08
6.29905e-06
6.599e-08
6.41381e-06
-2.96429e-08
5.93741e-06
-2.04804e-07
5.05395e-06
3.76654e-06
-4.11059e-07
1.46446e-07
6.03535e-06
2.96225e-07
6.14927e-06
3.81041e-07
6.329e-06
3.8598e-07
5.93247e-06
3.29206e-07
5.11073e-06
3.81939e-06
2.76356e-07
2.73205e-07
5.76215e-06
5.20547e-07
5.90193e-06
7.00836e-07
6.14871e-06
8.08026e-07
5.82528e-06
8.70985e-07
5.04777e-06
3.7201e-06
9.70271e-07
4.02555e-07
5.35959e-06
7.43127e-07
5.56136e-06
1.02001e-06
5.87183e-06
1.22714e-06
5.61815e-06
1.40107e-06
4.87383e-06
3.48996e-06
1.63121e-06
5.55847e-07
4.80375e-06
9.5772e-07
5.15949e-06
1.33186e-06
5.49768e-06
1.63457e-06
5.31545e-06
1.9017e-06
4.60671e-06
3.16837e-06
2.22329e-06
6.74386e-07
4.12936e-06
1.15015e-06
4.68372e-06
1.62831e-06
5.01952e-06
2.02305e-06
4.92071e-06
2.36063e-06
4.26913e-06
2.81018e-06
2.71882e-06
7.35619e-07
3.39374e-06
1.31097e-06
4.10838e-06
1.90154e-06
4.42894e-06
2.38834e-06
4.43391e-06
2.77142e-06
3.88605e-06
2.48535e-06
3.09625e-06
7.65195e-07
2.62854e-06
1.43864e-06
3.43493e-06
2.14478e-06
3.72281e-06
2.7312e-06
3.84749e-06
3.13868e-06
3.47856e-06
2.30396e-06
3.32008e-06
7.69046e-07
1.8595e-06
1.53127e-06
2.6727e-06
2.35273e-06
2.90135e-06
3.05791e-06
3.14232e-06
3.5106e-06
3.02586e-06
2.37411e-06
3.44045e-06
7.4647e-07
1.11303e-06
1.5856e-06
1.83358e-06
2.51297e-06
1.97397e-06
3.36942e-06
2.28587e-06
3.99956e-06
2.39572e-06
2.30114e-06
4.07254e-06
6.81351e-07
4.31677e-07
1.58823e-06
9.26699e-07
2.58473e-06
9.77467e-07
3.6276e-06
1.243e-06
4.63694e-06
1.38638e-06
1.50741e-06
5.43067e-06
4.31677e-07
1.35838e-06
2.33584e-06
3.57885e-06
4.96523e-06
6.47264e-06
-5.04138e-06
-9.86835e-06
-5.95928e-06
-1.13368e-05
-6.34124e-06
-1.1415e-05
-6.19031e-06
-1.11986e-05
-5.52211e-06
-1.08647e-05
-4.36584e-06
-1.04836e-05
-2.7656e-06
-1.00807e-05
-7.74624e-07
-9.68194e-06
1.54559e-06
-9.30849e-06
4.1349e-06
-8.98334e-06
6.93275e-06
-8.71936e-06
9.88356e-06
-8.52883e-06
1.29373e-05
-8.42021e-06
1.60509e-05
-8.39989e-06
1.91886e-05
-8.47123e-06
2.23215e-05
-8.63481e-06
2.54279e-05
-8.89042e-06
2.84929e-05
-9.2365e-06
3.15088e-05
-9.66987e-06
3.44764e-05
-1.01854e-05
3.74032e-05
-1.07763e-05
4.03016e-05
-1.14304e-05
4.31768e-05
-1.21404e-05
-1.29367e-05
-4.73754e-06
-8.29198e-06
-5.89531e-06
-1.0179e-05
-6.48245e-06
-1.08278e-05
-6.53454e-06
-1.11465e-05
-6.0977e-06
-1.13016e-05
-5.21676e-06
-1.13646e-05
-3.94138e-06
-1.1356e-05
-2.32637e-06
-1.12969e-05
-4.24657e-07
-1.12102e-05
1.7097e-06
-1.11177e-05
4.02316e-06
-1.10328e-05
6.46796e-06
-1.09736e-05
8.99909e-06
-1.09513e-05
1.15773e-05
-1.09781e-05
1.417e-05
-1.1064e-05
1.67502e-05
-1.1215e-05
1.92983e-05
-1.14385e-05
2.18015e-05
-1.17397e-05
2.42555e-05
-1.21239e-05
2.66654e-05
-1.25953e-05
2.90434e-05
-1.31543e-05
3.14069e-05
-1.37939e-05
3.37682e-05
-1.45016e-05
-1.52881e-05
-4.71476e-06
-6.903e-06
-5.88181e-06
-9.01194e-06
-6.5615e-06
-1.01481e-05
-6.73417e-06
-1.09739e-05
-6.43792e-06
-1.15978e-05
-5.72842e-06
-1.20741e-05
-4.66279e-06
-1.24217e-05
-3.29891e-06
-1.26608e-05
-1.69239e-06
-1.28167e-05
1.04449e-07
-1.29145e-05
2.04649e-06
-1.29749e-05
4.0895e-06
-1.30166e-05
6.19372e-06
-1.30556e-05
8.32054e-06
-1.31049e-05
1.04391e-05
-1.31825e-05
1.25274e-05
-1.33034e-05
1.45718e-05
-1.34829e-05
1.65653e-05
-1.37332e-05
1.85084e-05
-1.4067e-05
2.04087e-05
-1.44956e-05
2.22808e-05
-1.50264e-05
2.41466e-05
-1.56597e-05
2.60273e-05
-1.63824e-05
-1.71601e-05
-4.72408e-06
-5.5898e-06
-5.86519e-06
-7.87083e-06
-6.56602e-06
-9.44731e-06
-6.78426e-06
-1.07556e-05
-6.54196e-06
-1.18401e-05
-5.90086e-06
-1.27151e-05
-4.92657e-06
-1.3396e-05
-3.68283e-06
-1.39046e-05
-2.22854e-06
-1.4271e-05
-6.14087e-07
-1.4529e-05
1.11838e-06
-1.47073e-05
2.9331e-06
-1.48314e-05
4.80093e-06
-1.49234e-05
6.69799e-06
-1.5002e-05
8.6e-06
-1.50845e-05
1.04838e-05
-1.51872e-05
1.23425e-05
-1.53416e-05
1.4163e-05
-1.55537e-05
1.59417e-05
-1.58458e-05
1.76788e-05
-1.62326e-05
1.93765e-05
-1.67241e-05
2.10376e-05
-1.73208e-05
2.26597e-05
-1.80044e-05
-1.87137e-05
-4.68449e-06
-4.32094e-06
-5.79072e-06
-6.76461e-06
-6.47125e-06
-8.76677e-06
-6.66587e-06
-1.0561e-05
-6.39012e-06
-1.21159e-05
-5.71165e-06
-1.33936e-05
-4.70806e-06
-1.43996e-05
-3.45111e-06
-1.51615e-05
-2.00344e-06
-1.57187e-05
-4.15902e-07
-1.61165e-05
1.27147e-06
-1.63947e-05
3.02698e-06
-1.65869e-05
4.8259e-06
-1.67223e-05
6.64974e-06
-1.68258e-05
8.48511e-06
-1.69199e-05
1.03244e-05
-1.70265e-05
1.21512e-05
-1.71683e-05
1.3961e-05
-1.73636e-05
1.57465e-05
-1.76312e-05
1.74997e-05
-1.79858e-05
1.92152e-05
-1.84396e-05
2.08767e-05
-1.89824e-05
2.24685e-05
-1.95962e-05
-2.0245e-05
-4.56599e-06
-3.09493e-06
-5.62014e-06
-5.71046e-06
-6.24404e-06
-8.14288e-06
-6.34924e-06
-1.04558e-05
-5.94977e-06
-1.25153e-05
-5.12502e-06
-1.42184e-05
-3.97014e-06
-1.55544e-05
-2.56899e-06
-1.65626e-05
-9.89176e-07
-1.72985e-05
7.17326e-07
-1.7823e-05
2.5126e-06
-1.819e-05
4.36959e-06
-1.84439e-05
6.26943e-06
-1.86221e-05
8.19918e-06
-1.87556e-05
1.01499e-05
-1.88706e-05
1.21152e-05
-1.89917e-05
1.40884e-05
-1.91416e-05
1.6065e-05
-1.93402e-05
1.80392e-05
-1.96055e-05
2.00048e-05
-1.99514e-05
2.19509e-05
-2.03857e-05
2.38731e-05
-2.09046e-05
2.57667e-05
-2.14897e-05
-2.21265e-05
-4.34924e-06
-1.92614e-06
-5.33202e-06
-4.72767e-06
-5.85621e-06
-7.61869e-06
-5.79962e-06
-1.05124e-05
-5.17713e-06
-1.31378e-05
-4.08955e-06
-1.5306e-05
-2.65695e-06
-1.6987e-05
-9.81271e-07
-1.82383e-05
8.61675e-07
-1.91415e-05
2.81881e-06
-1.97802e-05
4.85578e-06
-2.0227e-05
6.95163e-06
-2.05397e-05
9.09477e-06
-2.07653e-05
1.12801e-05
-2.09409e-05
1.35062e-05
-2.10967e-05
1.57732e-05
-2.12588e-05
1.80816e-05
-2.14499e-05
2.04308e-05
-2.16894e-05
2.28187e-05
-2.19933e-05
2.52413e-05
-2.2374e-05
2.76937e-05
-2.28381e-05
3.01731e-05
-2.3384e-05
3.26759e-05
-2.39925e-05
-2.46628e-05
-4.02302e-06
-8.35733e-07
-4.90821e-06
-3.84248e-06
-5.28156e-06
-7.24534e-06
-4.97942e-06
-1.08145e-05
-4.02094e-06
-1.40963e-05
-2.54162e-06
-1.67853e-05
-6.96551e-07
-1.88321e-05
1.38555e-06
-2.03204e-05
3.61653e-06
-2.13724e-05
5.94101e-06
-2.21046e-05
8.32891e-06
-2.26149e-05
1.07672e-05
-2.2978e-05
1.32529e-05
-2.3251e-05
1.57901e-05
-2.34781e-05
1.83861e-05
-2.36927e-05
2.10492e-05
-2.39219e-05
2.37869e-05
-2.41876e-05
2.66044e-05
-2.45069e-05
2.95045e-05
-2.48935e-05
3.24881e-05
-2.53576e-05
3.55538e-05
-2.59038e-05
3.87037e-05
-2.65338e-05
4.19321e-05
-2.72209e-05
-2.79662e-05
-3.57855e-06
1.4847e-07
-4.3317e-06
-3.08933e-06
-4.4921e-06
-7.08494e-06
-3.84286e-06
-1.14638e-05
-2.41624e-06
-1.55229e-05
-4.01914e-07
-1.87996e-05
1.98105e-06
-2.12151e-05
4.57261e-06
-2.2912e-05
7.26956e-06
-2.40694e-05
1.00205e-05
-2.48556e-05
1.28068e-05
-2.54012e-05
1.56279e-05
-2.57991e-05
1.84915e-05
-2.61146e-05
2.141e-05
-2.63967e-05
2.43987e-05
-2.66814e-05
2.74723e-05
-2.69954e-05
3.06429e-05
-2.73582e-05
3.39188e-05
-2.77829e-05
3.73063e-05
-2.82809e-05
4.08085e-05
-2.88598e-05
4.44235e-05
-2.95189e-05
4.81492e-05
-3.02595e-05
5.19668e-05
-3.10386e-05
-3.19032e-05
-3.00963e-06
9.91925e-07
-3.58581e-06
-2.51315e-06
-3.4527e-06
-7.21805e-06
-2.33206e-06
-1.25844e-05
-2.9031e-07
-1.75647e-05
2.35884e-06
-2.14488e-05
5.3415e-06
-2.41977e-05
8.46443e-06
-2.60349e-05
1.16307e-05
-2.72356e-05
1.48033e-05
-2.80282e-05
1.79763e-05
-2.85742e-05
2.11605e-05
-2.89832e-05
2.43739e-05
-2.9328e-05
2.76368e-05
-2.96595e-05
3.09709e-05
-3.00155e-05
3.43975e-05
-3.04221e-05
3.7931e-05
-3.08917e-05
4.15781e-05
-3.143e-05
4.53467e-05
-3.20495e-05
4.92366e-05
-3.27496e-05
5.32427e-05
-3.35249e-05
5.73554e-05
-3.43722e-05
6.15818e-05
-3.52651e-05
-3.62452e-05
-2.31418e-06
1.65386e-06
-2.65488e-06
-2.17245e-06
-2.11978e-06
-7.75315e-06
-3.66363e-07
-1.43378e-05
2.38749e-06
-2.03185e-05
5.73593e-06
-2.47972e-05
9.32087e-06
-2.77827e-05
1.29515e-05
-2.96655e-05
1.65417e-05
-3.08259e-05
2.00696e-05
-3.15561e-05
2.35474e-05
-3.2052e-05
2.70018e-05
-3.24376e-05
3.04632e-05
-3.27895e-05
3.39597e-05
-3.3156e-05
3.75196e-05
-3.35754e-05
4.1168e-05
-3.40705e-05
4.49259e-05
-3.46496e-05
4.88102e-05
-3.53143e-05
5.28014e-05
-3.60407e-05
5.68506e-05
-3.67989e-05
6.09182e-05
-3.75925e-05
6.49355e-05
-3.83895e-05
6.89318e-05
-3.92614e-05
-4.02083e-05
-1.4976e-06
2.08966e-06
-1.52513e-06
-2.14492e-06
-4.31359e-07
-8.84692e-06
2.10404e-06
-1.68732e-05
5.67382e-06
-2.38883e-05
9.70201e-06
-2.88254e-05
1.379e-05
-3.18706e-05
1.77664e-05
-3.36419e-05
2.1582e-05
-3.46415e-05
2.52525e-05
-3.52265e-05
2.88185e-05
-3.56181e-05
3.23245e-05
-3.59436e-05
3.58142e-05
-3.62792e-05
3.93375e-05
-3.66792e-05
4.29118e-05
-3.71498e-05
4.65143e-05
-3.7673e-05
5.01078e-05
-3.82431e-05
5.36466e-05
-3.88531e-05
5.70984e-05
-3.94925e-05
6.04623e-05
-4.01628e-05
6.37513e-05
-4.08815e-05
6.6967e-05
-4.16052e-05
7.01412e-05
-4.24356e-05
-4.32699e-05
-5.8179e-07
2.26039e-06
-1.96447e-07
-2.53026e-06
1.65663e-06
-1.07e-05
5.13122e-06
-2.03478e-05
9.46794e-06
-2.8225e-05
1.39504e-05
-3.33079e-05
1.82004e-05
-3.61206e-05
2.21461e-05
-3.75875e-05
2.58215e-05
-3.83169e-05
2.92916e-05
-3.86967e-05
3.26209e-05
-3.89473e-05
3.58634e-05
-3.91862e-05
3.90615e-05
-3.94772e-05
4.22104e-05
-3.98281e-05
4.52855e-05
-4.02249e-05
4.82869e-05
-4.06744e-05
5.12236e-05
-4.11798e-05
5.41011e-05
-4.17305e-05
5.69275e-05
-4.2319e-05
5.97074e-05
-4.29427e-05
6.24514e-05
-4.36255e-05
6.51895e-05
-4.43433e-05
6.78512e-05
-4.50973e-05
-4.57627e-05
3.94855e-07
2.14189e-06
1.33707e-06
-3.47248e-06
4.15317e-06
-1.35161e-05
8.55179e-06
-2.47464e-05
1.33435e-05
-3.30167e-05
1.7786e-05
-3.77504e-05
2.16966e-05
-4.00312e-05
2.51885e-05
-4.10794e-05
2.83759e-05
-4.15044e-05
3.13578e-05
-4.16786e-05
3.42045e-05
-4.17941e-05
3.69592e-05
-4.19408e-05
3.96332e-05
-4.21512e-05
4.22368e-05
-4.24318e-05
4.47997e-05
-4.27878e-05
4.73279e-05
-4.32025e-05
4.98132e-05
-4.36651e-05
5.22575e-05
-4.41748e-05
5.46794e-05
-4.47409e-05
5.71045e-05
-4.53678e-05
5.94968e-05
-4.60178e-05
6.18309e-05
-4.66774e-05
6.39958e-05
-4.72622e-05
-4.76916e-05
1.42272e-06
1.68944e-06
3.03721e-06
-5.08697e-06
6.9521e-06
-1.7431e-05
1.19737e-05
-2.9768e-05
1.66676e-05
-3.77106e-05
2.05679e-05
-4.16507e-05
2.38025e-05
-4.32659e-05
2.66534e-05
-4.39303e-05