/*--------------------------------*- C++ -*----------------------------------*\
  =========                 |
  \\      /  F ield         | OpenFOAM: The Open Source CFD Toolbox
   \\    /   O peration     | Website:  https://openfoam.org
    \\  /    A nd           | Version:  11
     \\/     M anipulation  |
\*---------------------------------------------------------------------------*/
FoamFile
{
    format      ascii;
    class       volVectorField;
    location    "1.22";
    object      U;
}
// * * * * * * * * * * * * * * * * * * * * * * * * * * * * * * * * * * * * * //

dimensions      [0 1 -1 0 0 0 0];

internalField   nonuniform List<vector> 
2880
(
(0.0109642 -0.0892995 -1.01451e-20)
(-0.00293796 -0.201068 7.07379e-19)
(-0.017598 -0.349718 0)
(-0.0207045 -0.430818 4.20576e-20)
(-0.0081221 -0.538915 -3.52378e-20)
(0.0354991 -0.363751 1.31505e-19)
(-0.0172973 -0.133295 0)
(-0.0394405 -0.253532 -2.23575e-19)
(-0.0469414 -0.377994 0)
(-0.0396759 -0.445855 -7.94162e-20)
(-0.00524822 -0.514023 -6.94034e-20)
(0.0419605 -0.402812 -1.54539e-19)
(-0.0459157 -0.146501 2.38716e-21)
(-0.0667567 -0.260865 -1.66337e-21)
(-0.070601 -0.366177 0)
(-0.0562172 -0.421666 7.53118e-20)
(-0.00462062 -0.468011 7.48139e-20)
(0.0543641 -0.393171 -7.48362e-21)
(-0.0762616 -0.148511 0)
(-0.0912558 -0.25371 0)
(-0.0919166 -0.342868 -5.32084e-21)
(-0.0710036 -0.388807 4.48484e-21)
(-0.00874858 -0.425026 0)
(0.074342 -0.377383 -6.07236e-20)
(-0.104513 -0.143829 -2.99134e-19)
(-0.113836 -0.2388 0)
(-0.112432 -0.313914 0)
(-0.0868581 -0.353191 -1.26849e-19)
(-0.0166525 -0.380602 1.15511e-19)
(0.0838537 -0.359715 5.95625e-20)
(-0.129928 -0.136196 -3.17278e-19)
(-0.134831 -0.219764 -4.18143e-19)
(-0.132706 -0.282354 -2.78733e-19)
(-0.104653 -0.316276 1.23624e-19)
(-0.0313045 -0.33773 1.32876e-19)
(0.0791946 -0.334311 6.0119e-20)
(-0.152161 -0.127809 6.16163e-19)
(-0.154556 -0.198862 3.79396e-19)
(-0.1531 -0.250048 3.09026e-19)
(-0.124871 -0.279003 -3.16915e-19)
(-0.0526668 -0.296549 -4.83775e-19)
(0.0620977 -0.30168 0)
(-0.170731 -0.119452 1.91488e-20)
(-0.173006 -0.177405 7.52974e-19)
(-0.173602 -0.218072 6.15896e-19)
(-0.147414 -0.242117 2.04964e-19)
(-0.0794486 -0.256679 -2.62569e-19)
(0.0340857 -0.264845 4.19901e-19)
(-0.185298 -0.111198 1.25512e-18)
(-0.190007 -0.156135 -7.32203e-19)
(-0.193952 -0.187027 -5.64774e-19)
(-0.171835 -0.206137 3.65145e-20)
(-0.11041 -0.218113 -6.60295e-20)
(-0.00232678 -0.226288 -4.75323e-19)
(-0.195681 -0.10286 -2.47274e-18)
(-0.205328 -0.135466 7.29394e-19)
(-0.213758 -0.157235 0)
(-0.197491 -0.171407 0)
(-0.144459 -0.181008 5.04135e-19)
(-0.0452246 -0.187886 0)
(-0.201854 -0.0941887 1.21752e-18)
(-0.218721 -0.115615 -6.49201e-19)
(-0.232605 -0.128833 -3.65376e-20)
(-0.223602 -0.138208 5.40299e-19)
(-0.180527 -0.145592 -1.27338e-19)
(-0.0927823 -0.150971 2.3538e-19)
(-0.203935 -0.0849513 -1.22602e-18)
(-0.229918 -0.09668 -6.71718e-19)
(-0.249945 -0.101915 -6.3211e-19)
(-0.249325 -0.106712 -5.36647e-19)
(-0.217537 -0.112117 1.26101e-19)
(-0.143177 -0.116422 4.67633e-19)
(-0.202151 -0.0749542 1.22521e-18)
(-0.238498 -0.0787168 7.1371e-19)
(-0.265357 -0.0765249 5.16712e-19)
(-0.273735 -0.077036 6.53357e-20)
(-0.254272 -0.0808468 1.24734e-19)
(-0.194627 -0.0848722 -6.89813e-19)
(-0.196769 -0.0640586 -2.0291e-20)
(-0.244089 -0.0618267 -2.37275e-20)
(-0.278275 -0.0526525 -6.33695e-19)
(-0.296015 -0.0492085 -2.26708e-21)
(-0.289439 -0.0520126 5.99726e-20)
(-0.245416 -0.0567964 -4.50002e-19)
(-0.188093 -0.0522722 0)
(-0.246484 -0.045956 0)
(-0.287839 -0.0304399 5.22411e-19)
(-0.3155 -0.0231118 6.49295e-20)
(-0.321774 -0.0257313 -6.01691e-19)
(-0.29385 -0.0325576 5.58547e-19)
(-0.176404 -0.0397265 9.95111e-20)
(-0.245433 -0.0310341 -4.46905e-20)
(-0.293244 -0.00992788 0)
(-0.331368 0.00132225 0)
(-0.350106 -0.00197 9.58444e-19)
(-0.338434 -0.0122231 -1.10406e-19)
(-0.161954 -0.0266877 -5.97219e-20)
(-0.24071 -0.0169917 2.27329e-20)
(-0.294189 0.00910235 5.38933e-19)
(-0.341927 0.0238202 6.62247e-20)
(-0.373616 0.0193999 -4.78251e-19)
(-0.377605 0.00443727 -4.31369e-19)
(-0.14491 -0.0135421 1.97222e-20)
(-0.232097 -0.0037219 4.8454e-20)
(-0.290472 0.0268232 -6.70576e-19)
(-0.345462 0.0443307 0)
(-0.391405 0.0387966 0)
(-0.409784 0.0177052 5.39636e-19)
(-0.125328 -0.000761986 -1.25054e-18)
(-0.219372 0.00890233 8.37751e-19)
(-0.281697 0.043193 -6.91167e-19)
(-0.341549 0.0630706 -7.1205e-20)
(-0.400181 0.0569303 6.12841e-20)
(-0.434412 0.0275838 -3.2665e-19)
(-0.103164 0.0111739 1.28064e-18)
(-0.202254 0.020996 -1.64705e-18)
(-0.267472 0.0580911 7.63383e-19)
(-0.329286 0.0800243 1.89941e-21)
(-0.397933 0.0734425 -6.33727e-20)
(-0.450732 0.0352627 -3.67812e-21)
(-0.0784828 0.0218027 -1.29597e-18)
(-0.180278 0.0325745 -1.2458e-21)
(-0.247387 0.0711719 -9.06322e-20)
(-0.30711 0.0947385 1.52481e-19)
(-0.382682 0.0889416 6.78487e-20)
(-0.457371 0.0454154 3.41316e-19)
(-0.0520423 0.0303156 1.27674e-18)
(-0.152484 0.0432547 9.64967e-19)
(-0.22079 0.0816483 -4.28203e-19)
(-0.272771 0.106198 3.64474e-19)
(-0.349954 0.104409 2.86101e-19)
(-0.450751 0.063318 0)
(-0.0246985 0.0353053 6.87858e-19)
(-0.115484 0.0518212 3.23754e-20)
(-0.185039 0.0885799 3.82779e-19)
(-0.221407 0.113402 -4.33716e-19)
(-0.288896 0.119864 -3.03806e-19)
(-0.425962 0.106927 2.3765e-21)
(0.0068697 0.0359793 -1.41962e-18)
(-0.0542609 0.0587274 0)
(-0.127362 0.0947659 0)
(-0.142467 0.116659 0)
(-0.163116 0.11582 0)
(-0.394824 0.0897647 3.25269e-19)
(0.746579 -0.991612 -9.15965e-20)
(1.06797 -0.937708 0)
(1.2126 -0.814192 2.68324e-20)
(1.28382 -0.70283 1.10584e-20)
(1.3148 -0.601964 0)
(1.3209 -0.51216 -1.29013e-20)
(1.31367 -0.435731 1.19479e-20)
(1.30107 -0.372587 1.55269e-20)
(1.28732 -0.321263 2.03345e-20)
(1.27393 -0.279556 1.83547e-20)
(1.26103 -0.245277 4.68491e-20)
(1.24832 -0.216643 0)
(1.2355 -0.192314 -2.79475e-20)
(1.22234 -0.171318 5.49257e-20)
(1.20866 -0.152943 1.35091e-20)
(1.19432 -0.136654 2.4625e-20)
(1.17916 -0.12204 2.54638e-20)
(1.16303 -0.10879 0)
(1.14571 -0.0966472 2.38628e-20)
(1.12697 -0.0852808 0)
(1.10652 -0.0741875 0)
(1.08373 -0.0637047 0)
(1.05646 -0.0582236 3.38296e-20)
(1.02121 -0.0660235 -2.32064e-20)
(0.677653 -0.707571 1.16259e-19)
(1.12301 -0.85483 0)
(1.28586 -0.774872 -3.08475e-20)
(1.35451 -0.677482 1.78893e-20)
(1.38222 -0.585111 0)
(1.38368 -0.499914 0)
(1.37045 -0.42536 -1.45295e-21)
(1.3512 -0.362601 -3.11365e-21)
(1.33102 -0.311039 0)
(1.31197 -0.269031 -4.68692e-21)
(1.29435 -0.234634 5.00003e-21)
(1.27778 -0.206115 0)
(1.26179 -0.182111 5.20292e-21)
(1.24599 -0.161605 1.16237e-20)
(1.23007 -0.14385 -3.43932e-20)
(1.2138 -0.128284 5.68384e-21)
(1.19696 -0.114488 0)
(1.17931 -0.102148 0)
(1.16061 -0.091029 -4.85479e-21)
(1.14057 -0.0808814 0)
(1.11885 -0.0713107 -4.71122e-21)
(1.09482 -0.0623014 -4.6744e-21)
(1.06662 -0.0564773 -3.62281e-20)
(1.02954 -0.0665754 2.03641e-20)
(0.553718 -0.503531 3.85336e-21)
(1.1223 -0.749293 -3.22219e-21)
(1.33272 -0.713712 0)
(1.41334 -0.635978 -1.20816e-20)
(1.44311 -0.554839 -1.38908e-21)
(1.44302 -0.477005 0)
(1.42576 -0.4065 1.46221e-21)
(1.40101 -0.345855 3.13622e-21)
(1.37487 -0.295293 -1.96299e-21)
(1.35022 -0.253807 6.35385e-21)
(1.32777 -0.219833 -5.0529e-21)
(1.3072 -0.191796 0)
(1.28793 -0.168367 -4.74823e-21)
(1.26944 -0.148521 0)
(1.25128 -0.131483 5.37271e-22)
(1.23312 -0.116674 9.94326e-21)
(1.21464 -0.103661 -4.04606e-21)
(1.19556 -0.0921292 0)
(1.17555 -0.0818607 2.07295e-22)
(1.15424 -0.0726826 3.94831e-21)
(1.13111 -0.0643237 6.93961e-22)
(1.10533 -0.0567359 8.50734e-21)
(1.0756 -0.0519968 1.41703e-20)
(1.04089 -0.0622597 -1.39217e-20)
(0.457021 -0.389867 0)
(1.0774 -0.634873 0)
(1.34964 -0.639692 0)
(1.45623 -0.582381 0)
(1.49396 -0.51323 1.40228e-21)
(1.49619 -0.444052 -3.0997e-21)
(1.47755 -0.379276 1.52536e-21)
(1.44902 -0.322248 1.24727e-21)
(1.41788 -0.27389 -3.99481e-22)
(1.38804 -0.233796 2.87007e-21)
(1.36085 -0.200841 -2.13592e-21)
(1.33625 -0.173688 0)
(1.31368 -0.151109 -5.13671e-22)
(1.2925 -0.132101 0)
(1.27216 -0.115889 -5.42042e-22)
(1.25221 -0.101887 4.10603e-21)
(1.23224 -0.0896569 -4.44125e-21)
(1.21187 -0.0788925 0)
(1.19066 -0.0693948 -3.7527e-21)
(1.16808 -0.0610026 5.34502e-22)
(1.14339 -0.0535397 7.6012e-21)
(1.11564 -0.0475779 -7.33665e-21)
(1.08413 -0.0464993 0)
(1.04917 -0.0543192 -3.68617e-21)
(0.38753 -0.333316 -3.791e-20)
(1.00076 -0.522515 3.32174e-20)
(1.33877 -0.558744 0)
(1.48131 -0.519835 0)
(1.53298 -0.462287 0)
(1.54108 -0.401886 1.86351e-20)
(1.52391 -0.344025 3.51423e-21)
(1.49371 -0.291843 1.17332e-20)
(1.45897 -0.246808 -7.71435e-21)
(1.42469 -0.208997 1.87264e-21)
(1.3931 -0.17771 0)
(1.36459 -0.1519 0)
(1.33876 -0.130496 0)
(1.31494 -0.112569 0)
(1.29249 -0.0973805 5.11906e-21)
(1.27085 -0.0843721 0)
(1.24952 -0.0731447 1.97991e-20)
(1.22798 -0.063443 9.23689e-22)
(1.20569 -0.0551248 -9.66937e-21)
(1.18199 -0.0480676 1.40805e-20)
(1.15601 -0.0421692 -1.35019e-20)
(1.12688 -0.038277 3.51809e-20)
(1.09404 -0.0398501 -6.24807e-20)
(1.05684 -0.0471069 2.73431e-20)
(0.331996 -0.297844 2.57249e-19)
(0.903654 -0.419962 -2.44253e-19)
(1.30192 -0.473891 1.6722e-19)
(1.48641 -0.450202 4.04636e-20)
(1.55814 -0.403535 1.07767e-19)
(1.57566 -0.351831 -5.24939e-22)
(1.56297 -0.301421 -9.54749e-20)
(1.53348 -0.25495 1.72647e-20)
(1.49689 -0.214179 -2.7524e-20)
(1.45932 -0.179498 3.32385e-22)
(1.42393 -0.150558 4.80953e-21)
(1.39182 -0.126603 4.67982e-22)
(1.36286 -0.106757 0)
(1.33647 -0.0902108 0)
(1.31196 -0.0763018 1.5348e-21)
(1.28867 -0.0645361 -2.08026e-20)
(1.26597 -0.0545796 1.3671e-20)
(1.24325 -0.0462438 2.30728e-20)
(1.21984 -0.0394426 1.58404e-21)
(1.19498 -0.0340854 -2.23754e-20)
(1.16782 -0.0300977 0)
(1.13753 -0.0283334 -3.07562e-20)
(1.10362 -0.031907 5.37533e-20)
(1.06478 -0.0399698 -3.33282e-20)
(0.281337 -0.267623 -2.49674e-19)
(0.796591 -0.331533 5.66006e-19)
(1.23996 -0.387535 -4.06651e-20)
(1.46948 -0.375469 9.99389e-20)
(1.56733 -0.338594 8.41507e-20)
(1.598 -0.295132 0)
(1.59277 -0.252126 1.13973e-19)
(1.56662 -0.211976 -4.40002e-20)
(1.53027 -0.176235 2.11949e-20)
(1.49088 -0.14546 3.2599e-20)
(1.45265 -0.119549 -1.8716e-20)
(1.41744 -0.0980017 4.2265e-21)
(1.38561 -0.0801485 -4.54677e-22)
(1.35678 -0.0653297 -8.0701e-21)
(1.33027 -0.0529948 8.10867e-22)
(1.30533 -0.0427401 0)
(1.28125 -0.0343109 -1.6632e-20)
(1.25732 -0.0275824 1.57197e-20)
(1.23279 -0.022507 -1.87248e-20)
(1.20688 -0.0190102 3.68333e-20)
(1.17873 -0.017034 -1.8149e-20)
(1.14757 -0.0173643 4.92234e-20)
(1.11292 -0.0227758 -4.83132e-20)
(1.07305 -0.0322935 1.01345e-20)
(0.231777 -0.237181 8.36679e-20)
(0.686861 -0.257831 -5.96032e-19)
(1.15376 -0.302781 -2.32906e-19)
(1.42854 -0.297554 -1.7527e-19)
(1.55813 -0.268799 -1.27269e-19)
(1.60631 -0.232973 0)
(1.61143 -0.19707 -7.72094e-20)
(1.59135 -0.163534 4.11261e-20)
(1.55756 -0.133363 -2.97535e-20)
(1.51818 -0.107136 -1.18446e-20)
(1.47836 -0.0848916 3.67813e-20)
(1.44083 -0.0663158 -1.16757e-20)
(1.40659 -0.0509243 -3.57228e-21)
(1.37555 -0.0382168 5.549e-21)
(1.34714 -0.0277747 0)
(1.32062 -0.0193026 0)
(1.29518 -0.0126311 3.48261e-21)
(1.27006 -0.00769274 0)
(1.24449 -0.0044656 3.36515e-20)
(1.2177 -0.00288684 -5.61976e-20)
(1.18883 -0.00291959 2.8047e-20)
(1.1571 -0.0052823 -1.84888e-21)
(1.12201 -0.0124879 -2.27858e-20)
(1.08152 -0.0237755 3.17366e-20)
(0.179856 -0.20524 0)
(0.57785 -0.197679 3.00785e-19)
(1.04576 -0.222349 -6.36718e-19)
(1.36221 -0.218555 6.09565e-19)
(1.52775 -0.19588 -8.28674e-20)
(1.59819 -0.166743 2.33234e-19)
(1.6169 -0.137535 3.19764e-19)
(1.60569 -0.110505 -1.2136e-19)
(1.57704 -0.0861418 0)
(1.53979 -0.0648955 0)
(1.49998 -0.0468531 -1.82585e-20)
(1.46124 -0.0317864 -2.13761e-20)
(1.42525 -0.0193336 0)
(1.3924 -0.00913801 1.36425e-20)
(1.36232 -0.000917159 0)
(1.33434 0.0055093 2.15321e-21)
(1.30763 0.0102229 6.34628e-21)
(1.28142 0.0132369 -1.53545e-20)
(1.25496 0.0145498 -5.52656e-21)
(1.22748 0.0142064 0)
(1.19815 0.0122155 -3.22711e-20)
(1.16616 0.00789798 1.53099e-20)
(1.13092 -0.00104578 0)
(1.09016 -0.0142532 1.08444e-20)
(0.123203 -0.172306 0)
(0.471231 -0.148013 0)
(0.920289 -0.148722 5.14869e-19)
(1.26993 -0.141157 -4.1118e-19)
(1.47366 -0.121826 -1.49563e-19)
(1.57111 -0.0980618 -9.87385e-20)
(1.60698 -0.0748656 -2.55131e-19)
(1.60767 -0.0539235 7.61765e-20)
(1.58696 -0.0354762 0)
(1.55406 -0.0193234 0)
(1.51615 -0.00582704 0)
(1.47764 0.0052865 7.55169e-20)
(1.44091 0.0143611 -3.00019e-20)
(1.40688 0.0216564 -1.37718e-20)
(1.37553 0.0273354 0)
(1.34633 0.0314696 5.53888e-21)
(1.31855 0.0340544 2.96832e-21)
(1.29142 0.0350476 3.3126e-21)
(1.26424 0.034418 2.50159e-21)
(1.2363 0.0321827 0)
(1.20676 0.0283155 9.13336e-21)
(1.17478 0.0221507 1.91435e-20)
(1.13968 0.0115626 -2.70083e-20)
(1.09899 -0.00359553 -1.09253e-20)
(0.0613841 -0.139283 -8.23943e-20)
(0.367331 -0.105838 -6.18049e-19)
(0.782784 -0.0845289 1.26906e-19)
(1.15228 -0.0680673 -1.1542e-19)
(1.39341 -0.0489488 5.12267e-19)
(1.52207 -0.0286847 -2.66579e-19)
(1.57941 -0.0105432 1.11092e-19)
(1.59397 0.00589396 -1.55356e-19)
(1.58537 0.0172631 1.00971e-19)
(1.55978 0.0283921 -9.53511e-20)
(1.52554 0.03746 6.72988e-20)
(1.4889 0.0444108 -4.24045e-20)
(1.45269 0.0498047 6.73249e-20)
(1.41837 0.0538853 2.6943e-20)
(1.38636 0.0567436 2.75713e-20)
(1.35638 0.0583698 -2.10306e-20)
(1.32785 0.058685 0)
(1.30007 0.0575904 4.17095e-21)
(1.2724 0.0550167 -2.5355e-21)
(1.24422 0.050944 -1.00808e-21)
(1.21471 0.0453071 7.31385e-21)
(1.18301 0.0374394 -9.52238e-21)
(1.14833 0.025348 8.78687e-21)
(1.10805 0.00831421 1.4069e-21)
(-0.00480122 -0.107379 8.54517e-20)
(0.265344 -0.0697562 3.08724e-19)
(0.640173 -0.0308071 1.36121e-19)
(1.01209 -0.00234371 2.09888e-19)
(1.2857 0.0201299 -5.44456e-19)
(1.44814 0.0390992 -1.28578e-19)
(1.5313 0.053741 2.16067e-19)
(1.56446 0.0651704 -2.50215e-19)
(1.56676 0.0728918 9.5533e-21)
(1.55462 0.0775726 8.39488e-20)
(1.5268 0.0821439 -1.4778e-19)
(1.49376 0.0849915 0)
(1.45955 0.0865666 -3.73415e-20)
(1.4261 0.0872237 -8.02889e-20)
(1.39428 0.0870502 2.62779e-20)
(1.36417 0.0859992 -1.29475e-20)
(1.33537 0.083938 -1.20077e-20)
(1.30732 0.0807156 -1.36203e-20)
(1.27949 0.0762173 6.73632e-22)
(1.25131 0.0703804 3.70969e-21)
(1.22209 0.0631008 3.48981e-21)
(1.19093 0.0537134 -1.85973e-21)
(1.15694 0.0403095 3.75948e-21)
(1.11743 0.0215735 1.26438e-21)
(-0.0736293 -0.0780829 7.25767e-19)
(0.164815 -0.0393327 -5.91413e-19)
(0.498028 0.0116173 5.21855e-19)
(0.855302 0.05281 -2.10878e-19)
(1.151 0.0823178 7.2933e-19)
(1.34707 0.102428 -2.89826e-19)
(1.45952 0.115522 -1.04745e-19)
(1.51526 0.123482 3.27458e-19)
(1.53385 0.12718 -1.79949e-20)
(1.53179 0.127962 -1.01828e-19)
(1.51764 0.127727 0)
(1.49057 0.126366 -6.27912e-20)
(1.46015 0.124144 0)
(1.429 0.121291 -6.29874e-20)
(1.39852 0.117961 5.57314e-20)
(1.36916 0.114124 -3.42689e-20)
(1.34079 0.109621 4.46157e-20)
(1.31303 0.10426 0)
(1.28546 0.0978778 4.60718e-21)
(1.25763 0.0903678 4.48079e-21)
(1.22896 0.081587 -7.98693e-22)
(1.19862 0.0708996 2.64908e-21)
(1.16562 0.0564275 -1.98601e-21)
(1.12722 0.0362558 0)
(-0.142867 -0.052762 -1.05659e-20)
(0.066386 -0.0151328 5.85167e-19)
(0.359935 0.0423339 -6.40037e-19)
(0.690925 0.0950415 3.22152e-19)
(0.992757 0.133802 -5.55722e-19)
(1.21771 0.158125 1.35924e-19)
(1.36141 0.171942 1.02631e-19)
(1.44325 0.178245 0)
(1.48255 0.179135 1.41739e-19)
(1.49446 0.176263 6.49878e-21)
(1.49129 0.173065 1.73618e-19)
(1.47695 0.168148 6.23894e-20)
(1.45262 0.161998 -5.21216e-20)
(1.42561 0.15562 0)
(1.39794 0.149106 2.82949e-20)
(1.37049 0.142453 0)
(1.34348 0.135499 0)
(1.31679 0.128024 -2.16756e-20)
(1.29011 0.119827 2.05427e-20)
(1.26311 0.110755 -2.28121e-20)
(1.23534 0.100633 8.42116e-21)
(1.20613 0.0888802 8.38807e-21)
(1.17446 0.0736499 4.71849e-21)
(1.13756 0.0523981 -4.74713e-21)
(-0.210396 -0.0325955 -1.24007e-18)
(-0.0283391 0.00205367 0)
(0.228677 0.0618005 -2.39952e-19)
(0.527648 0.122854 6.40264e-19)
(0.819953 0.171049 0)
(1.06198 0.202503 2.88273e-19)
(1.23481 0.219872 -2.31011e-19)
(1.34521 0.226785 3.51614e-19)
(1.40868 0.226555 -4.43474e-19)
(1.43979 0.222231 0)
(1.45009 0.215197 2.51755e-21)
(1.44717 0.20821 -1.92383e-19)
(1.43397 0.199315 1.7036e-19)
(1.41369 0.189553 4.2779e-20)
(1.3908 0.179987 9.28482e-20)
(1.3668 0.170603 -8.24854e-20)
(1.34241 0.161258 -2.00491e-20)
(1.3178 0.151742 0)
(1.29287 0.141834 7.32692e-21)
(1.26741 0.131341 -1.76587e-20)
(1.24109 0.120064 2.04374e-20)
(1.21343 0.107481 -1.13884e-20)
(1.18351 0.0918671 -5.68354e-21)
(1.14863 0.0699889 -3.59142e-21)
(-0.274206 -0.0184858 1.2856e-18)
(-0.117183 0.0114427 1.32995e-19)
(0.10648 0.0705347 -5.87919e-19)
(0.371952 0.136124 -4.16076e-19)
(0.643898 0.192149 0)
(0.888148 0.231997 -4.19068e-19)
(1.08125 0.255624 5.66141e-19)
(1.21884 0.266009 -3.80742e-19)
(1.30861 0.267001 4.20565e-19)
(1.36226 0.262327 -2.29574e-19)
(1.39067 0.254471 9.60145e-21)
(1.40193 0.245077 2.69886e-19)
(1.40044 0.233827 -1.22512e-19)
(1.39015 0.22179 9.77592e-22)
(1.37457 0.209758 2.90316e-20)
(1.35603 0.19797 -8.22868e-20)
(1.33586 0.186434 6.67433e-20)
(1.31467 0.175029 -2.86265e-20)
(1.29265 0.163562 5.09719e-20)
(1.26972 0.151826 2.99413e-20)
(1.24569 0.139609 -3.39307e-20)
(1.22022 0.126449 3.09138e-21)
(1.19263 0.110837 -2.7943e-23)
(1.16052 0.0889231 2.18912e-21)
(-0.332252 -0.0107254 -5.9734e-19)
(-0.198236 0.0125546 0)
(-0.00476077 0.0689579 4.63859e-19)
(0.228242 0.135885 0)
(0.47416 0.197217 0)
(0.708012 0.244699 1.28048e-19)
(0.908739 0.275852 -3.25989e-19)
(1.06617 0.292206 1.82875e-19)
(1.18053 0.297109 -1.66573e-19)
(1.25827 0.294343 -1.2336e-19)
(1.30776 0.286976 -8.23113e-20)
(1.33656 0.276869 7.70645e-20)
(1.34986 0.264609 0)
(1.35186 0.25115 -8.79833e-20)
(1.34611 0.237356 -6.38797e-20)
(1.33534 0.223687 8.81931e-20)
(1.32136 0.21033 3.89731e-20)
(1.30524 0.197301 -2.38678e-20)
(1.28755 0.184494 -4.09736e-20)
(1.26845 0.171734 -3.23479e-20)
(1.24788 0.15882 3.08884e-20)
(1.22562 0.145375 -8.07843e-21)
(1.20124 0.130158 1.00057e-20)
(1.17294 0.108866 2.66526e-22)
(-0.382802 -0.00918708 6.97734e-20)
(-0.269413 0.00544806 -6.23027e-19)
(-0.103255 0.057887 5.31258e-19)
(0.0992533 0.123943 -4.60289e-19)
(0.317236 0.187883 0)
(0.532631 0.240765 -1.22212e-19)
(0.729001 0.278927 1.13866e-19)
(0.895355 0.302332 1.74543e-19)
(1.0275 0.313218 0)
(1.12687 0.314783 -1.0758e-19)
(1.19808 0.310048 0)
(1.24666 0.301168 -1.3819e-19)
(1.27739 0.289356 0)
(1.29439 0.275721 6.8188e-21)
(1.30125 0.261219 1.09952e-19)
(1.30085 0.246496 -7.79805e-22)
(1.29537 0.231934 2.08488e-20)
(1.28633 0.217718 3.03316e-21)
(1.27468 0.203883 6.08818e-21)
(1.26095 0.190357 3.05418e-20)
(1.2453 0.177004 0)
(1.22767 0.163534 -1.68648e-20)
(1.20779 0.149146 1.21339e-20)
(1.18501 0.129216 0)
(-0.42461 -0.013212 -7.20745e-20)
(-0.328817 -0.00939133 4.94472e-19)
(-0.187414 0.0386725 -3.24371e-19)
(-0.0132458 0.102369 2.70571e-19)
(0.176888 0.166491 2.89828e-19)
(0.369971 0.222232 2.39984e-19)
(0.553516 0.265495 9.40751e-20)
(0.718176 0.295313 -8.80007e-20)
(0.858437 0.312815 -1.27748e-19)
(0.97266 0.320288 1.02798e-20)
(1.06214 0.320222 9.99586e-21)
(1.1298 0.314695 3.15287e-21)
(1.17893 0.30521 -1.48535e-19)
(1.21287 0.293039 4.95381e-20)
(1.23475 0.279251 -1.74978e-21)
(1.24734 0.264653 2.08091e-20)
(1.25293 0.249815 -6.63478e-20)
(1.2533 0.235103 -4.45654e-20)
(1.24976 0.220725 2.71852e-20)
(1.24318 0.206757 -9.144e-21)
(1.23407 0.19321 -2.05347e-20)
(1.22272 0.17988 3.14032e-20)
(1.20888 0.166619 -1.48987e-20)
(1.19409 0.148821 3.41535e-21)
(-0.455985 -0.021832 1.3581e-19)
(-0.374635 -0.0310388 -1.21681e-19)
(-0.255935 0.0130377 0)
(-0.108143 0.0734548 0)
(0.0550676 0.13583 -1.44385e-20)
(0.224459 0.191958 -2.38992e-19)
(0.390652 0.237955 0)
(0.545895 0.272376 -1.42943e-19)
(0.685113 0.295633 1.4127e-19)
(0.805536 0.309189 -9.60336e-20)
(0.906484 0.314828 8.12312e-20)
(0.98878 0.314244 6.46549e-20)
(1.05406 0.308864 5.13415e-20)
(1.1044 0.299941 0)
(1.14204 0.288563 -3.21172e-20)
(1.1692 0.275622 4.41575e-20)
(1.18792 0.261814 -2.61457e-20)
(1.19994 0.24766 -3.26902e-20)
(1.20669 0.233532 2.94221e-20)
(1.2093 0.219663 -4.83751e-21)
(1.20851 0.206262 -1.31056e-20)
(1.20511 0.193181 2.90623e-21)
(1.19861 0.181005 1.18421e-21)
(1.19456 0.165791 -2.70659e-22)
(-0.475047 -0.0373175 -6.71512e-20)
(-0.405468 -0.057823 5.97002e-20)
(-0.307836 -0.0168007 0)
(-0.184924 0.0398192 -7.6497e-20)
(-0.0473693 0.0988502 -4.64338e-19)
(0.0982366 0.153181 -1.0307e-19)
(0.244957 0.199493 1.7935e-19)
(0.386462 0.236316 -4.82013e-21)
(0.518075 0.263633 1.8258e-19)
(0.636994 0.282244 1.81095e-19)
(0.741761 0.293354 -8.07478e-20)
(0.832014 0.298205 2.75693e-21)
(0.908184 0.297927 5.09806e-20)
(0.971233 0.293573 0)
(1.02246 0.286104 0)
(1.06334 0.276363 0)
(1.09536 0.265067 3.40489e-20)
(1.11994 0.252805 0)
(1.13837 0.240058 -1.02348e-20)
(1.15177 0.227165 6.13055e-21)
(1.16089 0.214521 3.95745e-21)
(1.1671 0.202001 -7.94914e-22)
(1.16896 0.190636 -1.19284e-21)
(1.1772 0.177696 5.88589e-22)
(-0.479275 -0.0602307 0)
(-0.420661 -0.0872612 -2.22216e-19)
(-0.342758 -0.0481371 1.82463e-19)
(-0.243606 0.00425202 -1.51262e-19)
(-0.130414 0.0585546 1.35898e-19)
(-0.00783197 0.109165 -9.74271e-20)
(0.118683 0.153562 9.0617e-20)
(0.244125 0.190611 -7.39819e-20)
(0.364315 0.219977 5.01229e-20)
(0.476382 0.242062 -9.497e-21)
(0.578651 0.257603 -7.51681e-20)
(0.67026 0.267384 -6.73082e-21)
(0.750995 0.272215 -4.70579e-20)
(0.821107 0.272886 -1.59585e-20)
(0.881201 0.270135 0)
(0.932115 0.264649 -9.4335e-21)
(0.974814 0.257058 -1.60435e-20)
(1.01032 0.247929 0)
(1.03958 0.237758 0)
(1.06359 0.226923 2.95117e-21)
(1.08286 0.215893 -1.6457e-20)
(1.09919 0.20464 2.9273e-21)
(1.1099 0.194229 0)
(1.12972 0.182622 -1.01574e-22)
(-0.463727 -0.0925158 -2.8752e-20)
(-0.419788 -0.11558 6.44587e-20)
(-0.361261 -0.0776836 -3.58783e-19)
(-0.284904 -0.0303514 4.84933e-21)
(-0.194547 0.0177758 1.24303e-19)
(-0.0937546 0.0629195 0)
(0.0129664 0.103512 7.42421e-20)
(0.12138 0.138731 -1.38472e-19)
(0.227891 0.168266 -5.95606e-21)
(0.329749 0.192157 4.17403e-20)
(0.425143 0.210727 0)
(0.512964 0.224423 4.57039e-20)
(0.592647 0.233752 -4.34335e-20)
(0.664071 0.239203 1.59208e-20)
(0.72742 0.241278 0)
(0.783109 0.240459 1.79374e-20)
(0.831711 0.237217 -1.1678e-20)
(0.873927 0.232005 6.64726e-21)
(0.910481 0.225275 1.1335e-20)
(0.942147 0.217438 -1.09147e-20)
(0.969281 0.208913 2.20294e-21)
(0.993547 0.19986 -2.4789e-21)
(1.01235 0.190951 -1.07323e-21)
(1.03939 0.180216 0)
(-0.421764 -0.136469 3.27262e-19)
(-0.402444 -0.136194 1.58968e-19)
(-0.365593 -0.101686 2.17428e-19)
(-0.310751 -0.0613501 3.99505e-20)
(-0.24085 -0.0210729 1.17416e-19)
(-0.159724 0.0170126 -5.09487e-20)
(-0.0714836 0.0521917 0)
(0.0201476 0.0839599 6.2259e-20)
(0.112024 0.111977 -9.65174e-20)
(0.201655 0.136096 -3.70105e-20)
(0.287238 0.156349 -2.89953e-20)
(0.367566 0.172869 -2.26346e-20)
(0.441883 0.185842 0)
(0.509826 0.195499 -1.35868e-20)
(0.571329 0.202105 8.86537e-21)
(0.62654 0.205935 -3.47778e-20)
(0.67576 0.207285 -1.62888e-20)
(0.719405 0.206472 1.04455e-20)
(0.758014 0.203806 -7.71977e-21)
(0.792247 0.199597 2.85833e-21)
(0.822551 0.194182 0)
(0.849957 0.187976 7.80961e-22)
(0.873564 0.181182 -8.20247e-22)
(0.900681 0.172127 -4.9908e-23)
(-0.0363121 0.048158 -6.57481e-19)
(-0.144093 0.0989487 2.44405e-19)
(-0.268645 0.137422 0)
(-0.339188 0.153844 3.53204e-20)
(-0.336366 0.150555 -5.41525e-20)
(-0.231179 0.0992872 2.5012e-19)
(-0.0745709 0.0830318 0)
(-0.197678 0.136041 -2.35704e-19)
(-0.287833 0.16386 0)
(-0.321948 0.16818 -6.95052e-20)
(-0.317877 0.156588 -5.49409e-20)
(-0.241461 0.0951905 -9.70887e-20)
(-0.0911697 0.103558 2.04008e-21)
(-0.203675 0.158658 -1.70348e-21)
(-0.277381 0.175045 0)
(-0.301283 0.169935 6.56069e-20)
(-0.296332 0.14327 5.7991e-20)
(-0.25174 0.0739546 -5.34577e-21)
(-0.10583 0.123375 0)
(-0.203475 0.177659 0)
(-0.26487 0.186738 -4.90376e-21)
(-0.285507 0.17259 3.95977e-21)
(-0.281293 0.136342 0)
(-0.256883 0.0653228 -4.25373e-20)
(-0.122193 0.14276 -2.46023e-19)
(-0.203647 0.193919 0)
(-0.254706 0.197802 0)
(-0.272242 0.177316 -1.06882e-19)
(-0.270594 0.135204 8.81281e-20)
(-0.258946 0.0658122 4.1739e-20)
(-0.139003 0.159208 -2.98357e-19)
(-0.205148 0.206638 -3.99234e-19)
(-0.246057 0.208027 -2.54639e-19)
(-0.260978 0.183578 1.02961e-19)
(-0.262045 0.138645 1.02035e-19)
(-0.258493 0.0722024 4.32422e-20)
(-0.152871 0.177424 6.2241e-19)
(-0.206124 0.216429 3.62543e-19)
(-0.238109 0.217475 2.81197e-19)
(-0.250928 0.191279 -2.63991e-19)
(-0.254146 0.145817 -3.73916e-19)
(-0.255492 0.082805 0)
(-0.159745 0.19591 1.92989e-20)
(-0.205104 0.22443 7.12677e-19)
(-0.230191 0.22646 5.56793e-19)
(-0.241383 0.200391 1.7273e-19)
(-0.245912 0.156101 -2.06746e-19)
(-0.249716 0.096796 3.19701e-19)
(-0.163955 0.208151 1.26066e-18)
(-0.202112 0.231421 -6.98929e-19)
(-0.22194 0.235298 -5.11855e-19)
(-0.231796 0.21083 2.93804e-20)
(-0.236729 0.168968 -5.77739e-20)
(-0.240993 0.113539 -3.66841e-19)
(-0.166937 0.218147 -2.48591e-18)
(-0.197498 0.2378 6.96152e-19)
(-0.213174 0.244197 0)
(-0.221772 0.222454 0)
(-0.226222 0.183958 4.13559e-19)
(-0.229237 0.132584 0)
(-0.16889 0.226127 1.22605e-18)
(-0.191336 0.24371 -6.27929e-19)
(-0.20377 0.253296 -3.39543e-20)
(-0.211047 0.235092 4.7503e-19)
(-0.214205 0.20065 -1.07134e-19)
(-0.214476 0.153524 1.96734e-19)
(-0.169413 0.231497 -1.2346e-18)
(-0.183747 0.249227 -6.54473e-19)
(-0.193584 0.262659 -5.8679e-19)
(-0.199487 0.248563 -4.76224e-19)
(-0.200663 0.218633 1.09723e-19)
(-0.196893 0.1759 4.10818e-19)
(-0.167948 0.234002 1.23517e-18)
(-0.174853 0.2544 7.03859e-19)
(-0.182566 0.272296 4.84519e-19)
(-0.187092 0.262682 6.00662e-20)
(-0.185763 0.237485 1.12339e-19)
(-0.176893 0.199156 -6.21834e-19)
(-0.164134 0.233852 -1.96211e-20)
(-0.164688 0.259205 -2.28796e-20)
(-0.170737 0.282178 -6.00709e-19)
(-0.173995 0.277215 -1.56682e-21)
(-0.169873 0.25679 5.58785e-20)
(-0.155145 0.222631 -4.29957e-19)
(-0.157746 0.231647 0)
(-0.153278 0.26355 0)
(-0.15817 0.2923 4.97864e-19)
(-0.160436 0.291915 6.16085e-20)
(-0.153572 0.276104 -5.80014e-19)
(-0.132633 0.245573 5.42332e-19)
(-0.148332 0.230081 9.84716e-20)
(-0.140932 0.267496 -4.64579e-20)
(-0.145029 0.302505 0)
(-0.146755 0.306674 0)
(-0.137552 0.294932 9.37529e-19)
(-0.110744 0.26726 -1.12853e-19)
(-0.125365 0.233343 -5.49512e-20)
(-0.128528 0.270764 2.37108e-20)
(-0.131644 0.31241 5.2035e-19)
(-0.1333 0.321265 6.37251e-20)
(-0.122588 0.313069 -4.7517e-19)
(-0.0911127 0.287127 -4.51588e-19)
(-0.103611 0.228716 1.61437e-20)
(-0.117371 0.271356 4.88631e-20)
(-0.118313 0.321132 -6.45047e-19)
(-0.120404 0.335341 0)
(-0.109371 0.33057 0)
(-0.0754189 0.304763 5.72862e-19)
(-0.0918613 0.213932 -9.6563e-19)
(-0.107372 0.267964 8.26758e-19)
(-0.104932 0.327668 -6.63115e-19)
(-0.108185 0.34845 -6.85411e-20)
(-0.0983979 0.347821 6.06296e-20)
(-0.0661824 0.319634 -3.46489e-19)
(-0.0795126 0.193764 9.92379e-19)
(-0.0966236 0.260253 -1.58539e-18)
(-0.0909467 0.331398 7.26225e-19)
(-0.0965571 0.35997 2.20891e-21)
(-0.0895725 0.36576 -6.23501e-20)
(-0.0673386 0.331163 -2.22316e-21)
(-0.0642756 0.170848 -1.00382e-18)
(-0.0842943 0.248152 1.30839e-21)
(-0.075834 0.332034 -8.5506e-20)
(-0.0845621 0.3691 1.45617e-19)
(-0.0825873 0.387167 6.77815e-20)
(-0.0809916 0.338913 3.6145e-19)
(-0.0520793 0.148554 1.04825e-18)
(-0.0709875 0.231908 8.95173e-19)
(-0.0597159 0.329424 -3.99095e-19)
(-0.0719919 0.373858 3.44388e-19)
(-0.0730578 0.415995 2.73253e-19)
(-0.0966967 0.346765 0)
(-0.0411612 0.122461 6.16587e-19)
(-0.0566973 0.209214 2.97004e-20)
(-0.0432038 0.321373 3.56446e-19)
(-0.0594572 0.367474 -4.08736e-19)
(-0.0559333 0.45378 -2.90724e-19)
(-0.0961713 0.3565 6.05567e-21)
(-0.0276494 0.0625057 -6.76903e-19)
(-0.0427233 0.14959 0)
(-0.0254394 0.282096 0)
(-0.04178 0.317427 4.40979e-20)
(-0.0239843 0.476478 4.28529e-20)
(-0.0876758 0.321156 2.17916e-19)
(-0.318417 -0.141565 -3.7804e-19)
(-0.369917 -0.143348 0)
(-0.360777 -0.117396 1.23778e-19)
(-0.324512 -0.0871446 -3.67168e-20)
(-0.271232 -0.0564661 0)
(-0.2063 -0.0267116 4.27248e-20)
(-0.133922 0.00187987 -3.97597e-20)
(-0.0575078 0.0289912 0)
(0.0201586 0.0542121 4.68645e-20)
(0.0969019 0.0773041 3.68628e-20)
(0.171095 0.0980714 2.88876e-20)
(0.241553 0.11638 2.25553e-20)
(0.307481 0.132164 0)
(0.368399 0.145403 1.35414e-20)
(0.424094 0.156131 -3.4401e-21)
(0.474555 0.164432 1.63915e-20)
(0.51993 0.170387 -4.00979e-21)
(0.560484 0.174089 2.0459e-20)
(0.596553 0.175732 8.30009e-22)
(0.628595 0.175596 -5.50597e-21)
(0.657152 0.17391 1.18821e-21)
(0.682914 0.170951 1.52024e-21)
(0.706208 0.166737 -9.44065e-23)
(0.727586 0.160247 2.06617e-24)
(-0.287319 -0.11329 1.31542e-19)
(-0.34768 -0.135562 0)
(-0.35326 -0.125342 -1.02858e-19)
(-0.329854 -0.107976 5.20398e-20)
(-0.28818 -0.088172 0)
(-0.234858 -0.0674269 0)
(-0.174373 -0.0459543 1.76856e-20)
(-0.110052 -0.0240918 1.392e-20)
(-0.0444396 -0.00233913 0)
(0.020577 0.0189316 8.45248e-21)
(0.0835909 0.0393494 -6.53869e-21)
(0.143569 0.0586253 0)
(0.19981 0.0764943 -3.86551e-21)
(0.251841 0.0927198 -5.50353e-21)
(0.299429 0.107124 1.42388e-20)
(0.342527 0.119579 -2.3061e-21)
(0.381221 0.129975 0)
(0.41573 0.138244 0)
(0.446358 0.144308 6.43373e-22)
(0.473554 0.148121 0)
(0.497869 0.149756 2.93687e-22)
(0.51987 0.149503 1.95725e-22)
(0.539611 0.147606 8.03126e-22)
(0.554822 0.143358 -4.66186e-22)
(-0.281353 -0.0847772 3.48876e-21)
(-0.335624 -0.122639 -3.0562e-21)
(-0.345083 -0.128548 0)
(-0.328724 -0.125275 -3.40319e-20)
(-0.293678 -0.116968 -3.44294e-21)
(-0.247271 -0.105404 0)
(-0.194223 -0.091042 -1.76169e-20)
(-0.137867 -0.0744035 -1.3856e-20)
(-0.0806906 -0.056124 6.18413e-21)
(-0.024475 -0.0368152 -1.29873e-20)
(0.029626 -0.0170132 6.49822e-21)
(0.0808039 0.00283541 0)
(0.128502 0.0223155 3.39326e-21)
(0.172301 0.0409576 0)
(0.211931 0.0583404 -2.50543e-22)
(0.247452 0.0742458 -3.07876e-21)
(0.279018 0.0883439 1.2171e-21)
(0.306908 0.10036 0)
(0.331518 0.110013 -1.02486e-22)
(0.353299 0.117036 -4.65991e-22)
(0.37282 0.121256 -6.53721e-23)
(0.390524 0.122706 -4.19489e-22)
(0.405932 0.121658 -5.08665e-22)
(0.417618 0.11846 3.54598e-22)
(-0.281328 -0.0623513 0)
(-0.327397 -0.109628 0)
(-0.336143 -0.129574 0)
(-0.32135 -0.140283 0)
(-0.288371 -0.143641 3.44793e-21)
(-0.244403 -0.141227 -1.01562e-20)
(-0.194442 -0.133785 1.49628e-21)