/*--------------------------------*- C++ -*----------------------------------*\
  =========                 |
  \\      /  F ield         | OpenFOAM: The Open Source CFD Toolbox
   \\    /   O peration     | Website:  https://openfoam.org
    \\  /    A nd           | Version:  11
     \\/     M anipulation  |
\*---------------------------------------------------------------------------*/
FoamFile
{
    format      ascii;
    class       surfaceVectorField;
    location    "1.22";
    object      Uf;
}
// * * * * * * * * * * * * * * * * * * * * * * * * * * * * * * * * * * * * * //

dimensions      [0 1 -1 0 0 0 0];

internalField   nonuniform List<vector> 
5640
(
(0.00523222 -0.13675 3.27919e-19)
(-0.000793896 -0.111591 -5.07254e-21)
(-0.010953 -0.278578 3.6874e-19)
(-0.019214 -0.227544 2.44009e-19)
(-0.019558 -0.391822 2.03184e-20)
(-0.0293988 -0.364211 0)
(-0.0138009 -0.478329 1.06605e-21)
(-0.0263941 -0.438806 -1.86793e-20)
(0.00490395 -0.50604 4.61351e-20)
(-0.00485203 -0.526695 -5.23206e-20)
(0.0355295 -0.382886 -1.49312e-20)
(0.341537 -0.564497 3.8492e-20)
(-0.0273755 -0.186029 -1.05338e-19)
(-0.0320527 -0.139872 1.19358e-21)
(-0.0433551 -0.31669 -1.16545e-19)
(-0.052759 -0.257218 -1.12619e-19)
(-0.0436609 -0.413312 -3.83666e-20)
(-0.058381 -0.372108 0)
(-0.022595 -0.475122 -7.45502e-20)
(-0.048003 -0.433757 -2.02221e-21)
(0.014809 -0.492668 -1.10951e-19)
(-0.00599926 -0.490956 3.26991e-21)
(0.0443001 -0.397769 -8.10114e-20)
(0.310861 -0.487086 -1.99203e-20)
(-0.055675 -0.197972 3.77074e-22)
(-0.0619158 -0.147513 1.19358e-21)
(-0.0686573 -0.313702 -8.67075e-22)
(-0.079256 -0.25729 -8.31684e-22)
(-0.0637105 -0.395333 3.63838e-20)
(-0.081376 -0.354524 -2.66042e-21)
(-0.0310777 -0.441595 7.50699e-20)
(-0.0635789 -0.405236 3.98983e-20)
(0.0236885 -0.450632 3.7418e-20)
(-0.00667454 -0.446519 3.7407e-20)
(0.064514 -0.385276 -3.41036e-20)
(0.263248 -0.411108 -2.75712e-21)
(-0.0833876 -0.196564 0)
(-0.0905021 -0.146178 -1.49567e-19)
(-0.0914971 -0.298239 -2.54721e-21)
(-0.102651 -0.246263 0)
(-0.0817326 -0.36705 -7.84884e-22)
(-0.102264 -0.328398 -2.66042e-21)
(-0.0408236 -0.404566 2.30529e-21)
(-0.0789518 -0.371 -6.11822e-20)
(0.0322151 -0.411981 -2.9634e-20)
(-0.0118115 -0.402749 5.77553e-20)
(0.0804993 -0.368446 -1.32453e-21)
(0.233284 -0.367808 -3.54073e-20)
(-0.109001 -0.18768 -1.58196e-19)
(-0.117101 -0.139996 -3.08334e-19)
(-0.11301 -0.276204 0)
(-0.124282 -0.229275 -2.09071e-19)
(-0.0999207 -0.334357 -6.12819e-20)
(-0.122548 -0.298131 -1.39367e-19)
(-0.0528459 -0.365513 -9.40566e-21)
(-0.0957198 -0.334729 -1.65054e-21)
(0.0328281 -0.37447 8.82072e-20)
(-0.0234872 -0.359097 1.24718e-19)
(0.0826105 -0.346861 5.98407e-20)
(0.210142 -0.345729 1.89253e-20)
(-0.132306 -0.175174 -3.64801e-19)
(-0.140954 -0.131984 1.49248e-19)
(-0.133623 -0.25083 -3.5197e-19)
(-0.144632 -0.209301 -1.95074e-20)
(-0.118978 -0.299757 -8.39346e-20)
(-0.142864 -0.266193 1.50627e-20)
(-0.0690823 -0.326266 1.2812e-19)
(-0.114721 -0.297631 -9.66456e-20)
(0.0228125 -0.337169 9.73694e-20)
(-0.0418606 -0.317113 -1.75179e-19)
(0.070951 -0.317932 3.00595e-20)
(0.185147 -0.322323 1.45605e-19)
(-0.153281 -0.161322 5.04609e-19)
(-0.161413 -0.123621 3.17656e-19)
(-0.153663 -0.224176 3.45708e-19)
(-0.163748 -0.188125 5.66185e-19)
(-0.139294 -0.264731 6.62864e-21)
(-0.163329 -0.234054 4.62461e-19)
(-0.0898057 -0.287428 -3.97935e-19)
(-0.136125 -0.260555 -5.60148e-20)
(0.00331935 -0.298968 -2.47686e-19)
(-0.0660504 -0.276612 -3.73188e-19)
(0.0480815 -0.283265 2.0995e-19)
(0.154597 -0.292021 -1.04091e-19)
(-0.171679 -0.147154 3.64893e-19)
(-0.178028 -0.11533 6.37136e-19)
(-0.173115 -0.197439 6.87352e-19)
(-0.181498 -0.166767 1.04243e-20)
(-0.160801 -0.230167 4.17371e-19)
(-0.183772 -0.202548 2.55804e-20)
(-0.114355 -0.249288 -2.23809e-20)
(-0.15963 -0.224129 1.20739e-19)
(-0.0242082 -0.260132 7.11295e-20)
(-0.0949435 -0.237401 -1.64235e-19)
(0.0158922 -0.245562 -2.76539e-20)
(0.117828 -0.257552 2.70738e-19)
(-0.187253 -0.133055 3.18786e-19)
(-0.190548 -0.107054 -6.09077e-19)
(-0.191754 -0.17129 -6.52051e-19)
(-0.197674 -0.145803 -1.40466e-21)
(-0.183139 -0.196591 -2.73999e-19)
(-0.203863 -0.172135 -2.82387e-19)
(-0.141911 -0.212144 -1.30502e-20)
(-0.18468 -0.188779 1.82572e-20)
(-0.0578965 -0.221499 -2.6577e-19)
(-0.127458 -0.199571 2.19161e-19)
(-0.0237617 -0.207081 -2.37661e-19)
(0.0749348 -0.220907 -2.77156e-19)
(-0.199824 -0.119091 -9.6404e-19)
(-0.198871 -0.0985764 -6.2712e-19)
(-0.209268 -0.146095 3.80216e-19)
(-0.212039 -0.125547 4.00292e-20)
(-0.20579 -0.164318 0)
(-0.223191 -0.143039 -1.82688e-20)
(-0.171621 -0.176284 2.45e-19)
(-0.210564 -0.154817 2.7015e-19)
(-0.0962647 -0.18386 2.5811e-19)
(-0.162532 -0.16332 1.88399e-19)
(-0.0690238 -0.169438 1.1769e-19)
(0.0261292 -0.183844 0)
(-0.20933 -0.10515 3.37342e-19)
(-0.203005 -0.0896345 -4.24937e-21)
(-0.225332 -0.122008 -3.55829e-19)
(-0.224345 -0.106162 -6.6046e-19)
(-0.228161 -0.133537 2.42137e-19)
(-0.241297 -0.115387 -3.34324e-19)
(-0.202564 -0.141988 2.1584e-19)
(-0.236479 -0.122469 1.74997e-21)
(-0.137902 -0.147859 5.06162e-20)
(-0.199076 -0.12888 -6.18313e-22)
(-0.118048 -0.133736 3.51507e-19)
(-0.027611 -0.147747 1.06694e-19)
(-0.215401 -0.0917041 -9.64857e-19)
(-0.203174 -0.0800417 2.66204e-22)
(-0.239512 -0.0991759 -6.52769e-19)
(-0.234218 -0.087705 2.10456e-20)
(-0.249544 -0.104392 -5.85991e-19)
(-0.25768 -0.0892394 -5.7552e-20)
(-0.233777 -0.109497 -2.14563e-19)
(-0.261551 -0.0918882 -2.35655e-19)
(-0.181339 -0.114074 2.9238e-19)
(-0.23597 -0.096527 1.25418e-19)
(-0.168973 -0.100695 -1.11453e-19)
(-0.0848266 -0.113696 3.10796e-19)
(-0.218261 -0.0781202 9.84215e-19)
(-0.199592 -0.0696096 6.02459e-19)
(-0.25141 -0.0775931 6.19402e-19)
(-0.241316 -0.0702894 3.44991e-19)
(-0.269295 -0.0769217 2.98348e-19)
(-0.271827 -0.0645978 -5.84916e-20)
(-0.264188 -0.079009 9.42024e-20)
(-0.284915 -0.0631539 3.15343e-20)
(-0.225257 -0.0826842 -2.73139e-19)
(-0.271902 -0.0664666 9.23535e-20)
(-0.220102 -0.0708973 -5.69908e-19)
(-0.143739 -0.0826492 -1.01164e-19)
(-0.217825 -0.0644926 -2.32142e-20)
(-0.192553 -0.058274 -1.01455e-20)
(-0.260533 -0.0573409 -3.1561e-19)
(-0.245316 -0.053918 -1.18637e-20)
(-0.286739 -0.0511151 -3.28914e-19)
(-0.283059 -0.0415482 -5.56292e-20)
(-0.292725 -0.0506839 2.77824e-20)
(-0.305816 -0.0362126 3.13312e-20)
(-0.268 -0.0542931 -1.88902e-19)
(-0.305643 -0.0389049 -2.70859e-19)
(-0.269716 -0.0447513 5.47456e-20)
(-0.202349 -0.0554903 -2.66797e-19)
(-0.214164 -0.0508101 0)
(-0.18235 -0.0461026 4.97555e-20)
(-0.26636 -0.0384455 2.5009e-19)
(-0.245984 -0.0385208 -2.23452e-20)
(-0.301099 -0.027008 3.01156e-19)
(-0.290567 -0.0202095 2.61205e-19)
(-0.318445 -0.0244938 -2.59036e-19)
(-0.323469 -0.0109302 3.24647e-20)
(-0.30816 -0.0290487 -3.5435e-20)
(-0.336009 -0.0139211 1.78795e-19)
(-0.316203 -0.0224524 2.2407e-19)
(-0.258868 -0.0327723 -1.91312e-19)
(-0.207307 -0.0371247 3.45412e-20)
(-0.169254 -0.0332943 1.98946e-20)
(-0.268398 -0.0208591 -2.32961e-20)
(-0.243099 -0.0240445 -1.09788e-20)
(-0.311503 -0.00463929 0)
(-0.293754 -0.000455737 2.69467e-19)
(-0.340408 -0.000338786 4.65786e-19)
(-0.33664 0.0125806 3.31123e-20)
(-0.344347 -0.00703181 4.3683e-19)
(-0.361979 0.00857784 2.39329e-19)
(-0.358053 -0.00393203 -2.70887e-19)
(-0.311638 -0.0148512 4.7155e-19)
(-0.197288 -0.0235502 -2.24083e-20)
(-0.153476 -0.0201729 -1.99998e-20)
(-0.266386 -0.0044398 2.6985e-19)
(-0.236437 -0.0104019 3.55934e-20)
(-0.31697 0.0159853 3.09979e-19)
(-0.292355 0.0179311 -6.59895e-20)
(-0.357329 0.0216734 -1.9838e-19)
(-0.343715 0.0340473 3.31123e-20)
(-0.375418 0.011981 -4.55372e-19)
(-0.38254 0.0290592 -2.39125e-19)
(-0.39383 0.0108924 5.50825e-20)
(-0.358857 -0.00175475 -5.00564e-19)
(-0.184099 -0.0102471 3.32593e-20)
(-0.135134 -0.00717474 -6.15411e-19)
(-0.260088 0.0109331 -2.95819e-19)
(-0.225776 0.00252609 4.43103e-19)
(-0.316646 0.0350047 -3.46615e-19)
(-0.286108 0.0349731 -6.80872e-19)
(-0.367698 0.0415766 0)
(-0.343551 0.0536314 -3.56025e-20)
(-0.400341 0.0284804 2.6335e-19)
(-0.395791 0.047867 3.06421e-20)
(-0.422403 0.0221808 1.06493e-19)
(-0.398754 0.00664775 3.43204e-19)
(-0.167643 0.00257268 -2.66636e-19)
(-0.114259 0.00518309 1.51607e-20)
(-0.249202 0.0253142 1.0583e-19)
(-0.210867 0.0148527 -4.05117e-19)
(-0.310134 0.0525039 -3.91658e-19)
(-0.274611 0.0505953 3.63356e-20)
(-0.369676 0.059862 -7.39845e-21)
(-0.335441 0.0715074 -3.46528e-20)
(-0.417012 0.0426856 -1.28033e-19)
(-0.399109 0.0650958 -1.04427e-21)
(-0.442712 0.0311765 -1.63963e-19)
(-0.430697 0.0108026 -2.21395e-19)
(-0.14771 0.0146789 -9.87492e-20)
(-0.0908838 0.0163634 -7.66206e-21)
(-0.233425 0.0387282 -4.93117e-19)
(-0.19133 0.0266534 -8.23526e-19)
(-0.296738 0.068374 3.96595e-19)
(-0.257435 0.0646207 3.36375e-19)
(-0.362078 0.0765271 -2.89547e-20)
(-0.318167 0.0874463 7.719e-20)
(-0.423252 0.0545756 -3.42409e-20)
(-0.390297 0.0812147 2.238e-21)
(-0.45387 0.0407141 1.67055e-19)
(-0.454402 0.0122358 5.44757e-20)
(-0.12401 0.0257979 -6.85954e-19)
(-0.0653259 0.0259028 -8.90174e-21)
(-0.212381 0.0510418 -4.40371e-20)
(-0.166392 0.0378873 4.81985e-19)
(-0.27548 0.08222 2.54726e-20)
(-0.23399 0.0766524 -2.59418e-19)
(-0.343247 0.0916598 1.1222e-19)
(-0.289766 0.1009 2.58478e-19)
(-0.416644 0.0665968 2.07594e-19)
(-0.36624 0.0968675 1.76975e-19)
(-0.454237 0.0539331 1.70658e-19)
(-0.469034 0.0128281 1.71022e-19)
(-0.0962875 0.0352809 1.12763e-18)
(-0.0382095 0.0332969 9.82297e-19)
(-0.18543 0.0617251 2.98024e-19)
(-0.1338 0.048094 4.98671e-19)
(-0.244949 0.0931581 -4.60763e-20)
(-0.20269 0.0857931 -2.42263e-20)
(-0.309715 0.105121 3.26386e-19)
(-0.246866 0.110476 -3.31139e-20)
(-0.392899 0.0820616 1.4648e-19)
(-0.319538 0.111796 -9.61329e-21)
(-0.441944 0.0742764 1.18825e-21)
(-0.471106 0.014919 0)
(-0.0632328 0.041837 3.79025e-19)
(-0.00851622 0.0371765 -3.62523e-19)
(-0.150177 0.0698299 1.99386e-19)
(-0.0848438 0.0553847 1.61877e-20)
(-0.201755 0.10032 -1.16759e-20)
(-0.156691 0.0897816 1.9139e-19)
(-0.253896 0.116451 -3.71017e-19)
(-0.182518 0.112792 -2.16858e-19)
(-0.341607 0.109371 -1.71469e-19)
(-0.224942 0.121943 -1.51903e-19)
(-0.408178 0.106883 1.63823e-19)
(-0.456544 0.0281516 5.04167e-21)
(-0.018021 0.0458175 -7.50759e-19)
(-0.0928043 0.0767778 0)
(-0.136775 0.105818 0)
(-0.167155 0.119547 0)
(-0.23597 0.0940588 1.58736e-19)
(-0.452536 0.00589915 3.261e-19)
(0.900864 -0.981586 -4.68961e-20)
(0.675574 -0.845072 7.08092e-20)
(0.763986 -1.09803 -4.61834e-20)
(1.13806 -0.881755 1.31352e-20)
(1.1045 -0.897384 0)
(1.02874 -0.956278 -1.58057e-20)
(1.24742 -0.760373 2.02204e-20)
(1.25273 -0.794964 3.58365e-21)
(1.1729 -0.819403 -5.90161e-21)
(1.29904 -0.653347 5.62166e-21)
(1.32026 -0.690291 1.44739e-20)
(1.24691 -0.705748 -1.97131e-20)
(1.31778 -0.557908 -6.35264e-21)
(1.3491 -0.59361 0)
(1.2805 -0.603165 0)
(1.31729 -0.474794 -2.09668e-24)
(1.35269 -0.506087 -6.45065e-21)
(1.28958 -0.512945 -6.45065e-21)
(1.30741 -0.404847 1.37144e-20)
(1.34233 -0.430579 5.24745e-21)
(1.28579 -0.436871 1.64936e-20)
(1.29425 -0.347436 1.75433e-20)
(1.32633 -0.367617 6.20662e-21)
(1.27668 -0.374423 -4.52165e-20)
(1.28068 -0.30077 1.93556e-20)
(1.3093 -0.316168 1.01672e-20)
(1.2661 -0.323786 1.41866e-20)
(1.26753 -0.262668 3.2564e-20)
(1.29304 -0.274305 6.83387e-21)
(1.25538 -0.282586 1.09979e-20)
(1.25473 -0.231138 2.36545e-20)
(1.27775 -0.239964 2.59246e-20)
(1.24468 -0.2486 7.524e-21)
(1.24197 -0.204609 -1.38442e-20)
(1.2631 -0.211385 0)
(1.23377 -0.220072 0)
(1.22898 -0.181919 1.31539e-20)
(1.24868 -0.187217 -1.13723e-20)
(1.22245 -0.195704 -1.39737e-20)
(1.21556 -0.162214 3.43901e-20)
(1.23419 -0.166465 3.32747e-20)
(1.21055 -0.174557 1.33498e-20)
(1.20154 -0.144868 1.90331e-20)
(1.21938 -0.148399 -1.04728e-20)
(1.19796 -0.155944 -6.81626e-21)
(1.1868 -0.129405 2.50412e-20)
(1.20407 -0.132471 1.51544e-20)
(1.18457 -0.139346 2.70145e-20)
(1.17115 -0.115459 1.28242e-20)
(1.18807 -0.118265 1.27319e-20)
(1.17026 -0.124363 1.17627e-22)
(1.15444 -0.102734 1.18485e-20)
(1.17118 -0.10547 0)
(1.15489 -0.110687 -1.35665e-20)
(1.1364 -0.0909894 1.2011e-20)
(1.15317 -0.0938395 9.50401e-21)
(1.13828 -0.0980604 1.03395e-22)
(1.11677 -0.080022 0)
(1.13378 -0.0830825 0)
(1.1202 -0.0861375 0)
(1.09509 -0.0696395 0)
(1.1127 -0.0727512 -2.35561e-21)
(1.10042 -0.0744071 0)
(1.0704 -0.0595727 1.68141e-20)
(1.08936 -0.0630138 -2.3372e-21)
(1.07827 -0.0633405 -4.80757e-20)
(1.0409 -0.0495752 5.47556e-21)
(1.06181 -0.0573841 -1.63393e-21)
(1.05156 -0.0577346 6.51024e-20)
(1.02514 -0.0662705 -1.42115e-21)
(1.01805 -0.0644866 -2.89136e-20)
(0.893533 -0.795568 5.95228e-20)
(0.593821 -0.60429 6.0056e-20)
(1.20309 -0.811732 -1.51007e-20)
(1.1216 -0.802001 -1.61109e-21)
(1.31951 -0.727467 -7.19248e-21)
(1.30996 -0.744331 -1.54238e-20)
(1.36807 -0.632726 9.09424e-21)
(1.38448 -0.656762 3.34454e-21)
(1.38291 -0.543493 0)
(1.41306 -0.569998 -6.94538e-22)
(1.37712 -0.463509 -7.16364e-22)
(1.41369 -0.488479 0)
(1.36092 -0.39472 -2.27264e-21)
(1.39837 -0.415945 2.12642e-22)
(1.34121 -0.337385 -1.57539e-21)
(1.3763 -0.354239 1.66199e-22)
(1.32158 -0.29044 -2.31738e-21)
(1.35308 -0.303174 -9.81493e-22)
(1.30324 -0.252114 1.06037e-22)
(1.3312 -0.261425 9.15196e-22)
(1.28614 -0.220573 2.52456e-21)
(1.31113 -0.227238 -8.48491e-23)
(1.26985 -0.194258 2.57735e-21)
(1.29254 -0.198959 0)
(1.25395 -0.171968 8.38511e-21)
(1.2749 -0.175241 1.98346e-22)
(1.23809 -0.152813 -1.12073e-20)
(1.25774 -0.155064 5.81184e-21)
(1.222 -0.136136 -1.45053e-20)
(1.24069 -0.137667 -1.6928e-20)
(1.20544 -0.121443 2.86346e-21)
(1.22346 -0.122479 7.8149e-21)
(1.1882 -0.108362 0)
(1.20579 -0.109074 -2.02303e-21)
(1.17003 -0.0966086 -2.41053e-21)
(1.18741 -0.0971372 0)
(1.15066 -0.0859614 -2.44359e-21)
(1.16803 -0.0864422 -2.36074e-21)
(1.12977 -0.0762552 -2.3405e-21)
(1.14732 -0.076777 1.97415e-21)
(1.10686 -0.0673797 -4.69292e-21)
(1.12484 -0.0678091 -2.11966e-21)
(1.08082 -0.0592351 -2.03573e-20)
(1.09996 -0.0595118 1.8222e-21)
(1.04909 -0.0514455 -2.49883e-20)
(1.07129 -0.0542474 -1.08861e-20)
(1.03455 -0.0643792 3.22123e-21)
(0.830716 -0.642597 2.47388e-21)
(0.50514 -0.4467 1.92668e-21)
(1.22557 -0.720954 -1.64483e-21)
(1.09482 -0.692122 -1.61109e-21)
(1.3723 -0.674929 -5.92848e-21)
(1.34007 -0.676711 0)
(1.42796 -0.596803 -6.82475e-21)
(1.43491 -0.609179 -6.04081e-21)
(1.44305 -0.516933 -7.0509e-22)
(1.46879 -0.534032 -1.89254e-23)
(1.4345 -0.442573 7.20926e-22)
(1.46987 -0.460526 -1.54985e-21)
(1.41353 -0.376931 2.28846e-21)
(1.45188 -0.392886 1.49379e-21)
(1.38809 -0.321178 6.17021e-22)
(1.4252 -0.33405 2.19175e-21)
(1.36267 -0.274992 2.23474e-21)
(1.39652 -0.284591 -1.16703e-21)
(1.33911 -0.237131 7.09962e-22)
(1.36924 -0.243801 4.61196e-21)
(1.31758 -0.206032 -2.55125e-21)
(1.34439 -0.210337 -3.59441e-21)
(1.29765 -0.180238 -2.35211e-21)
(1.32178 -0.182742 0)
(1.27877 -0.15856 -2.39496e-21)
(1.30085 -0.159738 -2.63484e-21)
(1.26044 -0.140092 2.66395e-22)
(1.28099 -0.140311 0)
(1.24227 -0.12415 5.20291e-21)
(1.26173 -0.123686 -3.52711e-24)
(1.22395 -0.110227 2.99618e-21)
(1.24266 -0.10928 7.02465e-21)
(1.20517 -0.0979437 -2.0377e-21)
(1.22343 -0.0966593 -4.24189e-21)
(1.18562 -0.0870243 1.02928e-22)
(1.20367 -0.0855112 0)
(1.16496 -0.077276 2.0526e-21)
(1.18304 -0.0756282 -1.7727e-21)
(1.14275 -0.0685837 2.33157e-21)
(1.16108 -0.0668432 2.23391e-21)
(1.11829 -0.0609534 4.75646e-21)
(1.13715 -0.0589325 4.15754e-21)
(1.09055 -0.054601 1.1322e-20)
(1.11021 -0.0521591 5.57536e-22)
(1.05853 -0.0496719 6.42254e-21)
(1.0791 -0.0492541 7.08517e-21)
(1.04584 -0.0582831 -8.80391e-21)
(0.760295 -0.522235 0)
(0.424086 -0.361459 -1.8955e-20)
(1.21022 -0.626222 0)
(1.03443 -0.579036 1.66087e-20)
(1.40187 -0.609737 0)
(1.34318 -0.599294 0)
(1.47479 -0.548636 6.89418e-22)
(1.46882 -0.551104 0)
(1.49507 -0.479499 -8.14508e-22)
(1.51369 -0.487743 7.01142e-22)
(1.48701 -0.412396 -9.61818e-22)
(1.51884 -0.422954 7.76771e-21)
(1.46349 -0.351487 1.22069e-21)
(1.50094 -0.361635 2.5198e-21)
(1.43365 -0.298686 4.33713e-22)
(1.47155 -0.307032 6.49025e-21)
(1.40314 -0.254312 1.31663e-21)
(1.43857 -0.260339 -4.05692e-21)
(1.37459 -0.217655 2.68472e-22)
(1.40648 -0.221388 2.37136e-21)
(1.34867 -0.187501 -1.07844e-21)
(1.37706 -0.189269 -1.06796e-21)
(1.32507 -0.162567 -2.54455e-22)
(1.35049 -0.16279 0)
(1.30318 -0.141728 -2.5909e-22)
(1.32627 -0.140799 -2.56835e-22)
(1.28242 -0.124089 -2.6876e-22)
(1.30376 -0.122332 0)
(1.26227 -0.108963 1.76354e-21)
(1.28235 -0.106633 2.28851e-21)
(1.2423 -0.0958327 -1.43237e-22)
(1.26155 -0.0931278 2.05302e-21)
(1.22213 -0.0843214 -2.23673e-21)
(1.2409 -0.0813992 7.67892e-21)
(1.20134 -0.0741687 -1.86331e-21)
(1.21995 -0.0711657 4.61845e-22)
(1.17944 -0.0652262 -1.6234e-21)
(1.19822 -0.0622565 -6.67545e-21)
(1.15582 -0.0574606 4.04519e-21)
(1.17511 -0.0545296 7.30751e-21)
(1.12961 -0.0509328 -1.41465e-22)
(1.14982 -0.0478455 -2.95033e-21)
(1.09992 -0.0456646 -3.69017e-21)
(1.12144 -0.0429142 1.39221e-20)
(1.06639 -0.0415137 -1.83249e-21)
(1.08931 -0.0431581 -3.12404e-20)
(1.05305 -0.0507097 1.18284e-20)
(0.687076 -0.428303 -5.51301e-21)
(0.358904 -0.3157 1.0967e-19)
(1.16548 -0.533212 1.69565e-20)
(0.949846 -0.471568 -1.05518e-19)
(1.40838 -0.536508 0)
(1.31994 -0.516374 8.36098e-20)
(1.50666 -0.491072 0)
(1.48395 -0.485006 2.02318e-20)
(1.53698 -0.432633 9.176e-21)
(1.54576 -0.432883 5.38833e-20)
(1.53264 -0.373592 1.09426e-20)
(1.55855 -0.376833 9.35198e-21)
(1.50903 -0.318588 7.27141e-21)
(1.54362 -0.322697 -4.59804e-20)
(1.47658 -0.269929 2.70865e-21)
(1.51376 -0.273373 1.4499e-20)
(1.44205 -0.228384 -3.4146e-21)
(1.47807 -0.230474 -1.76192e-20)
(1.40908 -0.193708 9.46088e-22)
(1.44212 -0.194231 1.10251e-21)
(1.379 -0.165057 0)
(1.40861 -0.164121 2.40477e-21)
(1.35181 -0.141377 0)
(1.37828 -0.139242 2.33991e-22)
(1.32696 -0.121661 0)
(1.35087 -0.118619 0)
(1.30381 -0.10507 2.53818e-21)
(1.32575 -0.101384 0)
(1.28176 -0.0909488 2.57986e-21)
(1.30226 -0.0868358 3.26581e-21)
(1.26027 -0.0788141 9.8245e-21)
(1.27979 -0.0744494 -1.04013e-20)
(1.23883 -0.0683311 1.04255e-20)
(1.25778 -0.0638575 1.66817e-20)
(1.21691 -0.0592973 -4.30436e-21)
(1.23565 -0.0548384 1.19982e-20)
(1.19392 -0.0516299 2.12636e-21)
(1.21281 -0.0472781 -4.04266e-21)
(1.1691 -0.0453482 -1.82489e-23)
(1.18853 -0.0410703 -4.14746e-21)
(1.14157 -0.0405285 1.06892e-20)
(1.16196 -0.0361266 -6.75093e-21)
(1.11037 -0.0372402 -7.01802e-21)
(1.13227 -0.0332961 2.108e-21)
(1.07471 -0.0355838 -4.43343e-20)
(1.09892 -0.0358662 -4.22213e-21)
(1.0608 -0.043539 -2.99258e-21)
(0.61028 -0.353438 1.60295e-20)
(0.305399 -0.282996 -3.24411e-22)
(1.09815 -0.443676 -4.28254e-20)
(0.849632 -0.375849 1.62467e-19)
(1.39172 -0.458046 1.10796e-19)
(1.27088 -0.430726 6.30722e-20)
(1.52147 -0.426068 7.35524e-20)
(1.47808 -0.412807 7.02013e-20)
(1.56672 -0.377826 5.44435e-20)
(1.56294 -0.371022 9.66251e-20)
(1.56943 -0.327135 -4.70151e-20)
(1.58702 -0.323442 -2.62469e-22)
(1.54846 -0.27875 -4.03328e-20)
(1.57805 -0.276737 8.66746e-21)
(1.51546 -0.23513 -4.86258e-21)
(1.55022 -0.233429 -1.33678e-20)
(1.47836 -0.197315 -1.42162e-20)
(1.51372 -0.195178 -3.62494e-21)
(1.44185 -0.165392 1.8926e-21)
(1.47522 -0.162455 1.64657e-20)
(1.40806 -0.138844 2.23761e-21)
(1.43839 -0.135034 -6.95321e-21)
(1.37749 -0.116867 2.3616e-22)
(1.40471 -0.112286 2.34724e-21)
(1.34979 -0.0986161 0)
(1.3743 -0.0934397 -2.27338e-22)
(1.32432 -0.0833508 7.61e-22)
(1.34668 -0.0777592 -4.03505e-21)
(1.30041 -0.0704876 -9.5452e-21)
(1.32116 -0.0646389 1.02572e-21)
(1.27741 -0.0596075 -3.64322e-21)
(1.29704 -0.0536299 -1.04013e-20)
(1.25469 -0.0504422 1.83378e-20)
(1.27365 -0.0444377 -1.4805e-21)
(1.23162 -0.0428521 1.24638e-20)
(1.25032 -0.0369061 1.93962e-20)
(1.2075 -0.0367998 -1.03865e-20)
(1.22635 -0.0309682 -8.57036e-21)
(1.18153 -0.032317 -1.12595e-20)
(1.20096 -0.0265421 7.22892e-21)
(1.15281 -0.0294672 -1.52831e-20)
(1.1733 -0.0235614 -9.07451e-21)
(1.12037 -0.0283354 5.00413e-21)
(1.14257 -0.0228449 9.23361e-21)
(1.08313 -0.0290814 3.36802e-20)
(1.1083 -0.0273359 2.72005e-21)
(1.06895 -0.0361241 -1.14783e-20)
(0.531605 -0.293911 1.39648e-19)
(0.255876 -0.25259 -8.30028e-20)
(1.01358 -0.358709 2.6865e-19)
(0.741999 -0.294606 -1.41121e-20)
(1.35146 -0.376968 2.83296e-20)
(1.19678 -0.345179 -1.37038e-19)
(1.51715 -0.35553 9.66964e-20)
(1.44912 -0.336482 -3.73104e-20)
(1.58229 -0.316578 4.27146e-20)
(1.56293 -0.303642 -2.09072e-20)
(1.59543 -0.273952 5.61931e-20)
(1.60237 -0.263994 0)
(1.57991 -0.232524 3.60009e-20)
(1.60228 -0.224547 1.89886e-20)
(1.54873 -0.194611 -1.17914e-20)
(1.57915 -0.187708 -1.99764e-21)
(1.51086 -0.161301 2.68335e-20)
(1.54406 -0.15476 -4.27928e-21)
(1.47202 -0.132867 7.91633e-21)
(1.50465 -0.126265 1.07736e-20)
(1.43525 -0.109044 -7.8368e-21)
(1.4656 -0.102192 9.03267e-21)
(1.4017 -0.0892671 1.60457e-21)
(1.42922 -0.0821355 -3.7246e-21)
(1.37134 -0.0728733 -4.22895e-21)
(1.39617 -0.065517 -2.24449e-21)
(1.34364 -0.0592554 -3.45821e-21)
(1.36622 -0.0517569 -1.26055e-21)
(1.3179 -0.0479322 4.08654e-22)
(1.33875 -0.0403707 4.05434e-22)
(1.29339 -0.0385702 -8.25298e-21)
(1.31302 -0.0310092 0)
(1.26937 -0.030973 -5.64708e-22)
(1.28826 -0.0234603 -6.57472e-21)
(1.24514 -0.0250528 -1.38287e-21)
(1.26372 -0.0176281 7.85985e-21)
(1.21993 -0.0207944 8.96539e-21)
(1.23867 -0.0134781 7.46337e-21)
(1.19294 -0.0182246 8.76493e-21)
(1.21231 -0.0109416 -9.68218e-21)
(1.1633 -0.0174036 1.53292e-20)
(1.1838 -0.00997146 4.94899e-21)
(1.12996 -0.0184521 1.21724e-20)
(1.15235 -0.011319 2.36367e-20)
(1.09167 -0.0216214 -1.92574e-20)
(1.11748 -0.0176266 -3.54862e-20)
(1.07733 -0.0280218 2.09355e-20)
(0.452793 -0.243827 -2.48035e-19)
(0.205481 -0.221327 4.18339e-20)
(0.915433 -0.279873 -4.18271e-19)
(0.632573 -0.227679 -1.48354e-19)
(1.28726 -0.295928 -2.04624e-19)
(1.09956 -0.262637 -4.34812e-19)
(1.49154 -0.281149 -1.51671e-19)
(1.39544 -0.258031 2.17148e-19)
(1.58155 -0.250185 -6.46016e-20)
(1.54314 -0.23227 -1.05068e-19)
(1.60878 -0.215092 -3.80673e-20)
(1.60246 -0.199783 1.16617e-19)
(1.60157 -0.180675 -1.81874e-20)
(1.61435 -0.167238 1.20655e-19)
(1.57473 -0.148881 6.10895e-21)
(1.59868 -0.136964 -3.95776e-20)
(1.53817 -0.120663 -2.18046e-20)
(1.56744 -0.109703 -1.48767e-20)
(1.49855 -0.0963599 1.1484e-20)
(1.5291 -0.085975 -5.92228e-21)
(1.45983 -0.075871 1.27906e-20)
(1.48927 -0.0658368 9.60453e-21)
(1.42391 -0.0588144 -7.66154e-21)
(1.45112 -0.049021 -1.68165e-20)
(1.39123 -0.0447058 5.22976e-22)
(1.41599 -0.0351035 -1.78614e-21)
(1.36148 -0.0330875 2.79764e-21)
(1.38403 -0.0236557 9.59574e-21)
(1.33399 -0.0236 0)
(1.35479 -0.0143273 0)
(1.308 -0.0160075 1.72811e-21)
(1.32752 -0.00688062 1.07661e-21)
(1.28271 -0.0101853 1.75393e-21)
(1.30145 -0.00119036 4.78177e-21)
(1.25736 -0.00608683 1.67088e-20)
(1.27577 0.00278374 -7.67726e-21)
(1.23119 -0.00370891 -1.11965e-20)
(1.24975 0.00505182 1.39686e-20)
(1.20341 -0.00307609 -1.29923e-20)
(1.22261 0.00566769 -2.80988e-20)
(1.17312 -0.00426796 1.31914e-20)
(1.19351 0.00465414 -2.11204e-21)
(1.13922 -0.00746899 -1.2255e-20)
(1.16164 0.00131259 6.68458e-21)
(1.10031 -0.0130615 -3.1013e-20)
(1.12648 -0.00676102 -1.13929e-20)
(1.08588 -0.018998 2.12905e-20)
(0.373546 -0.200158 1.46787e-19)
(0.151315 -0.188864 0)
(0.806606 -0.208974 -1.5815e-19)
(0.524584 -0.172828 1.50393e-19)
(1.19973 -0.217092 -1.53498e-20)
(0.982745 -0.185654 -5.89889e-20)
(1.44262 -0.204898 2.62612e-19)
(1.31607 -0.179854 9.92215e-20)
(1.56193 -0.180221 7.2782e-20)
(1.50087 -0.158783 -1.16215e-19)
(1.60725 -0.151925 2.75897e-19)
(1.58484 -0.132319 6.86099e-20)
(1.61139 -0.124267 1.02328e-19)
(1.61213 -0.106119 3.36364e-20)
(1.59162 -0.09869 -6.14036e-20)
(1.60681 -0.08216 -2.25917e-20)
(1.55871 -0.0758731 0)
(1.58213 -0.0607529 0)
(1.52018 -0.0561876 -9.03403e-21)
(1.54706 -0.0420542 0)
(1.48087 -0.0395777 -1.9802e-20)
(1.50818 -0.0262932 -9.12925e-21)
(1.44347 -0.0257529 -1.07871e-20)
(1.46953 -0.0132117 2.64474e-20)
(1.40901 -0.0143703 6.76134e-21)
(1.43316 -0.0024544 -1.50009e-20)
(1.37751 -0.0051176 6.87812e-21)
(1.3997 0.00628619 3.75267e-22)
(1.34845 0.00223743 1.06806e-21)
(1.36898 0.0132322 0)
(1.32109 0.00782879 4.23385e-21)
(1.34038 0.0185091 4.16601e-21)
(1.29463 0.0117094 -4.51239e-21)
(1.31313 0.0221552 4.92652e-21)
(1.26828 0.013887 -1.04747e-20)
(1.28646 0.0241559 -5.7989e-21)
(1.24132 0.0143516 -2.78171e-21)
(1.25963 0.0244949 -1.51248e-21)
(1.21297 0.0130677 -1.60321e-20)
(1.23191 0.0232033 0)
(1.18231 0.00991917 -7.46461e-21)
(1.20247 0.0202723 -1.14579e-20)
(1.14819 0.00463492 7.70052e-21)
(1.17048 0.0150295 1.72267e-20)
(1.10901 -0.00332776 5.39103e-21)
(1.13531 0.00526501 -1.35042e-20)
(1.09462 -0.0089046 -3.62808e-22)
(0.293201 -0.160788 0)
(0.0921411 -0.155872 -4.11971e-20)
(0.690351 -0.146833 2.52043e-19)
(0.419157 -0.126988 -3.09024e-19)
(1.09073 -0.142574 6.04548e-20)
(0.851373 -0.116708 3.20888e-19)
(1.36894 -0.129167 -2.82559e-19)
(1.21101 -0.104658 -2.633e-19)
(1.5209 -0.108529 -1.16781e-19)
(1.43364 -0.0853359 1.81352e-19)
(1.58849 -0.0859636 -1.75846e-19)
(1.54674 -0.0632977 -1.82659e-19)
(1.60731 -0.0644945 -9.14629e-20)
(1.59331 -0.0426488 -7.20197e-20)
(1.59753 -0.0450049 3.85425e-20)
(1.60102 -0.0239127 -3.95896e-20)
(1.57079 -0.0276867 0)
(1.5863 -0.00903823 5.04856e-20)
(1.53539 -0.0128299 0)
(1.55704 0.00459518 -4.76755e-20)
(1.49717 -0.000512171 3.73878e-20)
(1.52093 0.0158608 3.36494e-20)
(1.45952 0.0096363 2.32465e-20)
(1.48335 0.0248895 1.71341e-20)
(1.42409 0.0178778 -2.19581e-20)
(1.44687 0.0321189 1.81519e-20)
(1.39136 0.0244083 -6.94335e-21)
(1.41268 0.0378019 6.5856e-21)
(1.36106 0.0293462 2.74744e-21)
(1.38099 0.042066 1.37856e-20)
(1.33256 0.0327274 4.26335e-21)
(1.3514 0.0449423 -7.42653e-21)
(1.30509 0.0345332 3.00733e-21)
(1.32323 0.0463886 1.48416e-21)
(1.27793 0.0347287 2.90991e-21)
(1.29578 0.0463345 3.52264e-21)
(1.25038 0.033282 1.25914e-21)
(1.26835 0.0447297 -1.92197e-22)
(1.22168 0.0301334 4.53739e-21)
(1.24028 0.0415731 -5.04042e-22)
(1.19093 0.025119 1.41075e-20)
(1.21075 0.0368188 8.2236e-21)
(1.15688 0.0178646 3.66465e-21)
(1.17891 0.0298007 4.81058e-21)
(1.11778 0.00764173 -1.90131e-20)
(1.14402 0.0184626 -9.0074e-21)
(1.10356 0.00238179 -4.75921e-21)
(0.211379 -0.124226 -3.43801e-19)
(0.0281767 -0.123399 1.52871e-21)
(0.569841 -0.0938161 -2.53372e-19)
(0.316045 -0.0879688 -1.5251e-19)
(0.963101 -0.0746211 2.37668e-21)
(0.711438 -0.0576916 1.31513e-19)
(1.26965 -0.056495 1.93175e-19)
(1.08203 -0.0352994 4.72343e-20)
(1.45581 -0.0372241 1.19984e-19)
(1.33959 -0.0143913 -1.58665e-20)
(1.54983 -0.0188029 -7.60551e-20)
(1.48523 0.00528341 -1.97578e-19)
(1.58657 -0.00238755 -2.04208e-20)
(1.55553 0.0217008 1.63579e-19)
(1.58977 0.0114147 -2.87207e-20)
(1.57927 0.0355646 -2.03191e-19)
(1.57278 0.0226447 4.79393e-21)
(1.57617 0.045139 5.52622e-20)
(1.54291 0.0327412 -1.48744e-20)
(1.55731 0.0530486 -5.70112e-21)
(1.50751 0.040709 1.29855e-20)
(1.52628 0.0598653 -3.94464e-20)
(1.47105 0.0469308 1.19516e-20)
(1.4914 0.064741 -2.12023e-20)
(1.43574 0.0517219 4.73112e-20)
(1.45618 0.0682217 1.54442e-20)
(1.40254 0.055231 2.72545e-20)
(1.42229 0.070587 -2.62658e-20)
(1.37151 0.057503 3.96097e-21)
(1.39037 0.0719251 2.69246e-20)
(1.34224 0.0584953 -1.0595e-20)
(1.36032 0.0722087 -1.66862e-20)
(1.31407 0.0581226 2.07035e-21)
(1.33164 0.071332 -6.00386e-21)
(1.28634 0.0563024 8.41024e-22)
(1.30372 0.0691699 -4.51258e-21)
(1.25842 0.0529709 -1.77689e-21)
(1.27597 0.0656306 -9.30933e-22)
(1.22962 0.0480351 3.1262e-21)
(1.24778 0.0606729 1.48537e-21)
(1.19902 0.0412775 -2.0356e-21)
(1.21841 0.0542122 5.50563e-21)
(1.16535 0.0322133 -4.2227e-22)
(1.18698 0.0455824 -5.69105e-21)
(1.12666 0.019904 5.1181e-21)
(1.15265 0.0328361 6.27317e-21)
(1.11278 0.0149677 1.63423e-21)
(0.127941 -0.0904524 2.00295e-19)
(-0.0393198 -0.092802 4.05609e-19)
(0.448142 -0.0495972 2.28151e-19)
(0.214752 -0.0547672 -1.41344e-19)
(0.821682 -0.0152722 1.72319e-19)
(0.568934 -0.00970813 3.28988e-19)
(1.14551 0.0104381 -1.70931e-19)
(0.933514 0.0251091 -4.94768e-22)
(1.3646 0.0311915 -3.39676e-19)
(1.21823 0.0511406 9.24371e-20)
(1.48848 0.0473639 4.63514e-20)
(1.39764 0.0707863 -2.09202e-19)
(1.54749 0.0596745 -1.53706e-20)
(1.49551 0.0847026 5.56612e-20)
(1.56571 0.0688125 -1.23296e-19)
(1.53999 0.0944143 3.76261e-20)
(1.56077 0.0751789 4.63371e-20)
(1.55037 0.100081 -4.7305e-21)
(1.54091 0.079745 -3.00652e-20)
(1.54319 0.102759 -8.93955e-21)
(1.51054 0.0833906 -7.46153e-20)
(1.5223 0.104993 -7.389e-20)
(1.47691 0.0856154 -1.84977e-20)
(1.49226 0.105741 -3.13956e-20)
(1.44304 0.0867831 -5.86266e-20)
(1.45991 0.105398 -1.86707e-20)
(1.41037 0.0870593 -2.8351e-20)
(1.4276 0.104291 -7.16382e-20)
(1.37938 0.0864744 6.82099e-21)
(1.39645 0.102534 4.06853e-20)
(1.3499 0.0849392 -1.24812e-20)
(1.3667 0.100086 -2.36082e-20)
(1.32146 0.0823141 -1.28082e-20)
(1.33811 0.0968003 1.60716e-20)
(1.29351 0.0784683 -6.6548e-21)
(1.3102 0.092505 -6.81017e-21)
(1.26551 0.0732974 1.98929e-21)
(1.2825 0.0870619 2.47797e-21)
(1.23685 0.0666734 4.4009e-21)
(1.25449 0.0803859 4.09524e-21)
(1.20667 0.0583254 8.31558e-22)
(1.22554 0.0723526 1.34556e-21)
(1.17365 0.0476596 9.33144e-22)
(1.19478 0.0623124 4.61975e-22)
(1.13571 0.0335031 2.5191e-21)
(1.16129 0.0483758 8.04351e-22)
(1.12236 0.0289389 6.32188e-22)
(0.0436334 -0.0604056 8.29653e-20)
(-0.108428 -0.0655631 3.56148e-19)
(0.327523 -0.0138295 -4.64359e-20)
(0.115398 -0.0273909 -1.48959e-21)
(0.672426 0.0330896 1.62301e-19)
(0.428672 0.026734 -6.15865e-20)
(0.999645 0.0687362 2.59887e-19)
(0.772886 0.0737489 5.56372e-20)
(1.24646 0.0937143 2.19337e-19)
(1.07162 0.107858 8.47228e-20)
(1.40173 0.109958 -1.93201e-19)
(1.28227 0.13018 -7.69511e-20)
(1.4867 0.119904 1.08581e-19)
(1.41045 0.143724 -9.69254e-22)
(1.52455 0.125171 1.5797e-19)
(1.47931 0.150903 1.63729e-19)
(1.5328 0.127609 -5.9445e-20)
(1.50828 0.153219 6.18719e-20)
(1.52485 0.127763 -5.1445e-20)
(1.51321 0.152178 -4.83395e-20)
(1.50434 0.126919 -3.10874e-20)
(1.50441 0.150353 8.68091e-20)
(1.47559 0.125146 -3.16866e-20)
(1.48382 0.1473 -6.45574e-22)
(1.44479 0.122622 -3.12172e-20)
(1.45644 0.143113 -2.60608e-20)
(1.41395 0.119554 -5.15441e-21)
(1.42735 0.138485 -3.14937e-20)
(1.384 0.115997 1.10887e-20)
(1.39826 0.133557 4.17673e-20)
(1.35511 0.111847 4.40563e-21)
(1.36985 0.128309 -1.71344e-20)
(1.32703 0.10693 2.24696e-20)