/*--------------------------------*- C++ -*----------------------------------*  =========                 |
  \      /  F ield         | OpenFOAM: The Open Source CFD Toolbox
   \    /   O peration     | Website:  https://openfoam.org
    \  /    A nd           | Version:  11
     \/     M anipulation  |
\*---------------------------------------------------------------------------*/
FoamFile
{
    format      ascii;
    class       volScalarField;
    object      U;
}
// * * * * * * * * * * * * * * * * * * * * * * * * * * * * * * * * * * * * * //

dimensions      [0 1 -1 0 0 0 0];

internalField   nonuniform List<scalar> 
2880
( 
0.04679927054533501
0.05011408853945731
0.07433733571738932
0.0914985096163542
0.19815631016372592
0.21611995314617977
0.04062730893096275
0.04093818261268678
0.07806696034061736
0.11279035455239647
0.18663869958353246
0.21094662225626132
0.03035205065692241
0.03841888129582707
0.0666653135348326
0.09842153516338129
0.15100445602383225
0.16957562949428062
0.025058732517050875
0.03011258395133687
0.06010551968587535
0.08501736898221157
0.1290596757948096
0.15323651454828202
0.02170703753394093
0.03600021676308557
0.0643617359540821
0.08708047571219382
0.12131919604645316
0.13023650016428456
0.031285860404537374
0.025956558225903065
0.05746273856587053
0.07989948675899111
0.1294488496562492
0.1449737195390169
0.02471498446412626
0.031608435657729056
0.04532023784473452
0.07225971381688656
0.07400379606705249
0.14597661761059594
0.011529195692276811
0.009483966298350244
0.036340361171069285
0.054717089393094276
0.09350560748477543
0.10225733240370982
0.01410108034731844
0.024080535000372744
0.02154737455581729
0.04035587749488789
0.06461154982137296
0.08272358897311838
0.015186594711210477
0.021313696966955425
0.02292919673363475
0.03632976552338624
0.057115667901022016
0.09886143550197707
0.006398920829688515
0.003987686449901107
0.029099546384793534
0.05103611978036321
0.060218882802467344
0.10075926638724358
0.019956469377682362
0.026897387518731775
0.03653695347553573
0.05079391325797994
0.1078961720019167
0.1357355207308623
-0.005009860666759763
0.016446259356029946
0.03097700360716668
0.035305505280092686
0.09231831039410926
0.14413416131572754
0.02232389023787179
0.037584887168191555
0.0437184719551128
0.0688427182670181
0.10009774070524236
0.15964710313448127
0.009618639762752818
0.03782293478279544
0.052922611991158164
0.06747235895542159
0.11676888357445542
0.16895247080967857
0.016845172034561068
0.045645930541536234
0.041474210446325904
0.08912210201765852
0.13051348210298142
0.19243715971286635
0.022129518371720752
0.04087866313760155
0.06956058695346057
0.08428723887765058
0.1456699295291016
0.19487191386715835
0.015155987107098173
0.036203390495646054
0.0636836129322578
0.10074899606635154
0.14791619350086652
0.17968933157445854
0.025302816923265303
0.05036134700458439
0.06748829632628059
0.10301085256037984
0.1664579338703537
0.22007429852425142
0.010355219068347798
0.04048889236158554
0.07244007068267905
0.10564923139287966
0.16907727699115205
0.22327346279615118
0.01809716509519145
0.0430119322625927
0.08838126101860061
0.11349263574087709
0.16379976835072974
0.2068427185800184
0.02310900452500017
0.06281665518655226
0.08670725913134705
0.10881684137399183
0.15265553969574347
0.19181368608479732
0.028413819796125048
0.043871448761495374
0.08283927583685419
0.10908142302863438
0.14544095580137276
0.1861251885011103
0.03863225344936419
0.05519863117977722
0.08715129354131007
0.12705391480359657
0.14951364419723573
0.2215451668961218
0.6698582214773383
0.8917620985562639
1.1044000091804043
1.1599874689240541
1.249628528744089
1.3515776365419558
1.3877557033956427
1.4222233669697766
1.494389330826721
1.5065167259694852
1.5482772508220002
1.4951420421734987
1.562439115639212
1.5654162968553402
1.5277356146568581
1.4724933277302956
1.5267723292896633
1.5325154630228266
1.423993742448687
1.4358459740244318
1.4409126990453176
1.3996193707595717
1.3903841662697107
1.3458486392780449
0.42706394300117545
0.7605362500842587
0.9673168058166483
1.098761997967036
1.223433293760408
1.212888700618921
1.2537319370426825
1.3167418395388746
1.4009844532588571
1.4471267469939515
1.4797293390191795
1.5492918611146735
1.4993451886592903
1.4873499107659138
1.5117354205980034
1.5618249820591343
1.4804576630118071
1.4945697009173715
1.4559334504384474
1.4198793370506848
1.4500346323996305
1.3903099992551962
1.3948276812656824
1.3521901914815897
0.3944876416798028
0.5760521236656002
0.7591348781189613
0.9416650823829021
1.162990819739501
1.1859243771214176
1.289128102747462
1.3379032446441528
1.3507823928185385
1.4463187370522668
1.491803456491204
1.4013691453877224
1.4459949592380623
1.4350479779360072
1.458437793059865
1.5132164660045684
1.467457878787102
1.4540571358636227
1.4473784708977817
1.411044110175511
1.4123151142512682
1.4089875842217392
1.3663029953402783
1.3207883424967548
0.2788820658782876
0.48233254870318004
0.6499464342015755
0.7621941410136166
1.0017929834147614
1.106448538756321
1.2055480596942225
1.2802596355439477
1.262187285673929
1.3069064355083682
1.332898145264131
1.3840869159069384
1.385192657747736
1.4251908253783456
1.4253601949781063
1.40228560169577
1.3970759983985737
1.4245531191083218
1.3462684009942119
1.3827764514839502
1.3191544808528564
1.351550498168506
1.2879270403883198
1.3171038964141608
0.21125386440893595
0.3938960005553752
0.56342476021893
0.6960302108949001
0.8533626370536351
0.9997565239161625
1.0301372541479974
1.1229343934267866
1.190301463459134
1.2532301682056302
1.2382752913978154
1.262373720867063
1.2906832259547727
1.2928656239198937
1.3244788658645368
1.2628673863017386
1.3792303781688457
1.3343668991936821
1.3113409924883297
1.288198421405307
1.321713125073036
1.270135379462236
1.2643353604060648
1.193637601809796
0.1849659450194563
0.3059802618025712
0.42430047974431717
0.5433532649266613
0.6985411253892851
0.803919365404584
0.9124248462885415
0.9437543734674665
1.0167377180143862
1.0452670143208371
1.0634821663791685
1.094634399339835
1.1178691801370084
1.1000372880334486
1.1209366628334412
1.1421851474477553
1.1883775478996157
1.2012917349412247
1.2272050007219026
1.1777935441049765
1.1704575858998068
1.212418665221805
1.2007476074021655
1.098383296712168
0.1515174392503001
0.24441984075077444
0.34501389199817567
0.4927128266560579
0.5976962291269265
0.6986743594880059
0.6392913045868052
0.7218964990956638
0.8221375560569384
0.7857005200011646
0.8618452319678118
0.9410748641972355
0.9111879399281292
0.9745530218526374
1.0237532912734197
0.9727038495959908
1.053172188974508
1.0894740567168422
1.0904565164062148
1.1244547614928873
1.069279153908322
1.0619107760484785
1.032155826611147
1.0660801772725141
0.15312192347731757
0.22994916152614192
0.32795118694343317
0.4360491214706264
0.48835595841078727
0.5215000564065985
0.5117800684527342
0.5511894891207862
0.5730130914732535
0.6850195248815005
0.7235341791886606
0.780461094083907
0.7549503088712126
0.7822026599117418
0.8556232700280215
0.8840002876427113
0.9351326438797003
0.9586258550625989
0.9522622823886779
0.9526305590681244
0.9292392054545688
0.9573454635967711
0.9580702801659563
0.9673245831104034
0.1279983639461853
0.18751500754788686
0.2500008617093158
0.3006926796364675
0.339065671545397
0.37463064550249925
0.33240414152766096
0.4201990155594032
0.4017900923624994
0.49356329030434143
0.537708800083618
0.5861459043738587
0.6026691385465002
0.6682084506467554
0.7648057440641762
0.7809198107930766
0.7156512178904704
0.7743269572590565
0.7838752767003337
0.8377182759611889
0.8142180621555606
0.8583843250037251
0.8420245182059081
0.8699941020504938
0.1816425386805825
0.1819959140452143
0.33693893234368383
0.23338095146550586
0.3412503667023338
0.20401859613048345
0.30768910097408875
0.2949329694512248
0.28556705853224407
0.30276827369118986
0.402591604639127
0.41540150345169835
0.4374256542003433
0.5320394441532695
0.5763710016108233
0.6248620643443163
0.6081769688081131
0.6596734464506704
0.7065202639565487
0.7282496519385919
0.723750300954914
0.7592120371251273
0.7915876099267767
0.7975980418134567
0.15277751109801513
0.18398549617794485
0.30848327514703433
0.3042942052765505
0.19478507508301335
0.11553877574620497
0.1062587139547454
0.1447691328936278
0.2126150800664176
0.23862810902212028
0.22013897008233563
0.3695314388880139
0.3306741756542978
0.3673375307241058
0.39332665131418587
0.4947847783448076
0.4617555561586908
0.5642677976546363
0.5889874394700958
0.6662443974939957
0.6256105243659128
0.6850429100853801
0.6985179989421975
0.7406680531567494
0.20020726502829783
0.21446609902912195
0.2863062141106694
0.21010194854067143
0.16962066947689003
0.20385399928243886
0.09120565424290783
0.10047781238247877
0.05196839299056988
0.14950287505556137
0.2010366654272343
0.27068562493098247
0.2621695311531923
0.3307530317289257
0.32618856939305485
0.3539457289319734
0.451654598797384
0.48860233013208554
0.5203762400884697
0.5254858472456301
0.5891731782396747
0.6664126187132985
0.715523542719362
0.7115801573550162
0.22714475226215924
0.26499539884323087
0.2972189575577794
0.18701876593652544
0.07877953923172643
0.10712257970486028
0.03263033616585953
0.036311254686578254
0.1479723546051639
0.10822441499924373
0.18197022668072727
0.20398314607083778
0.2245540477791299
0.2664324747782435
0.26131893554009267
0.26641725467146904
0.3766551663250237
0.48304829104573743
0.49786926483097016
0.5185214110578594
0.5812402559385812
0.6138315536390706
0.6931188193429867
0.7364072097555006
0.26890732519977006
0.27434229954911193
0.3509388876129783
0.16218489128575253
0.13683876472366063
0.11907454492705483
0.0720606810214297
0.1417880584870922
0.10462009405005601
0.1910561816036469
0.10623306425550605
0.18604753833911492
0.17634450488994535
0.2175390948597612
0.25561682714159206
0.30848887932923263
0.3396881883043169
0.3962918919709322
0.45999503108268924
0.5386565958841213
0.6237123671374192
0.6623942896602006
0.7268786268600848
0.7482533952860898
0.24931272592917592
0.2831614731976707
0.2954757333231445
0.20751168567672862
0.12157738454274847
0.1503392320815481
0.11818404120271675
0.13232598766434123
0.11515511593855898
0.13197869120441452
0.12693556806406503
0.19983796913438223
0.2227072460033216
0.20519627687597342
0.2219381125262151
0.3218215423455605
0.3527956795781637
0.4795387529300609
0.5417862257961973
0.5405537026762556
0.6312478741953411
0.6849059227409292
0.7270098158187819
0.794601107801109
0.2595469477798083
0.30758420544018444
0.2229685362949556
0.1706831959710564
0.14878322774899444
0.1253873819359138
0.1891936673257859
0.233559444933772
0.13892573211347925
0.23001885852655335
0.13963610380352431
0.19611614238363806
0.27705907244080274
0.2862614569890668
0.3288321583535998
0.4446384676415377
0.4532674431019095
0.4945728545587008
0.5898877622916141
0.6040579510913053
0.6630479906618871
0.7352713017075073
0.8031930559669455
0.8385088699624247
0.28342272099802346
0.23760154768451702
0.18823224116929482
0.22045066998901042
0.15898271833348276
0.15373713047132098
0.20437586354455783
0.2515261040104645
0.20728069101558588
0.29559824770215826
0.31024969621662923
0.3276754142574315
0.3391330997238987
0.39436787079131863
0.5199130060410337
0.43414323926943277
0.5133092895566422
0.6302788852273695
0.6553727766111653
0.7258406971231712
0.7636035108438539
0.8114532346284764
0.8117207105909011
0.8882672469763846
0.2717051756901454
0.3175585124718086
0.1523587705173829
0.12961042442421633
0.15914027712538759
0.23727938702045293
0.24610443921049785
0.31306416294055683
0.2944019008747589
0.3024945339986205
0.3517650195373758
0.3496706730317347
0.4560724570605128
0.45235160574456845
0.5810276597258126
0.566792699557717
0.6007184566211697
0.7019860542096333
0.7298260738559192
0.78186136078864
0.8365303569591109
0.906228603798166
0.9182021045008676
0.9426459618400946
0.29253361131155786
0.26131102403241324
0.1958382931022613
0.21986798675326813
0.20489947346729176
0.2360612231905721
0.3452616387477522
0.27173182577093025
0.3481611896200031
0.3614178554936356
0.4440134241278023
0.46006237921222604
0.5584081413388532
0.6460065875035992
0.6851363668873949
0.711290648798307
0.7450490058855228
0.7872591721666254
0.8151839309624644
0.8473707078675432
0.9514211014914828
0.916525442622437
0.9402418963151339
0.957513096154355
0.2884476902652513
0.1826800679543823
0.1709180445730727
0.17597757139236292
0.24936949168090417
0.2866525754207824
0.2609306190275045
0.4197572956090657
0.4312419993169202
0.41864748908945426
0.5089846853534976
0.5848312306749369
0.6502360210444742
0.7027909823083461
0.7848621544817527
0.7998291921181699
0.8691580323063912
0.8871624886587468
0.960074791254616
0.9790884288093498
1.002229361637311
1.023946440943041
1.0012618660974346
1.0286338858403525
0.28188017147585176
0.20346372634881604
0.1537948733781137
0.23136875030915505
0.24689031474543643
0.3057173353639594
0.3456885437033005
0.3748006741811897
0.43375521549661333
0.5512766232325523
0.6342615676866699
0.7198723542113252
0.7540162542149953
0.855902016720842
0.9024083899626536
0.9571793016911405
0.9940486200426186
1.0008498600397093
1.0170066750525077
1.0699807840052242
1.0636183510852353
1.074676711176087
1.0885347247767294
1.0607803590834632
0.2742000934801424
0.16224851608603097
0.19372312210261633
0.21169336133347827
0.27991248618093933
0.3313197982896824
0.3731878258880157
0.47191418869596335
0.5733364100808254
0.6125621698674948
0.7302700727278901
0.8106174958347313
0.9083664035305601
0.9843802170875454
1.0222031440833024
1.0675611837926542
1.0840330091602681
1.0995998502451503
1.1470949220807236
1.1423107429721069
1.1388915064582006
1.1413550528115228
1.1289760561222182
1.1198278089515787
0.1867867768532624
0.19874046125435485
0.2945718405526322
0.29337109260737904
0.3629563223531215
0.41400030262552634
0.4648088577953393
0.5171729476384969
0.6164421497655936
0.7362203593002421
0.8552606522980171
0.9502277413827266
1.005072704201735
1.0899323893935873
1.1500334838505255
1.177128105874263
1.183318304359351
1.225402656781905
1.1925320466371496
1.212491468555437
1.1828493062547036
1.180849154407609
1.1820798518361246
1.151683865199926
0.15533208447764302
0.19490285090506665
0.30988275376782426
0.2946700271860081
0.3673244908951141
0.4663780659840586
0.5374680566452431
0.6672478783261355
0.7612243981590339
0.8173239708642793
0.9691000946383717
1.0347205079061694
1.1514331875489692
1.1777551385252454
1.215056653657702
1.2380203198331214
1.2653669041849915
1.2694156159119188
1.2570563068899643
1.2424935625760989
1.2312423208069838
1.212361279490455
1.1898860695343128
1.1880779473332714
0.05409382363623593
0.15032562493904364
0.24233248029255836
0.21263703898839337
0.18095609464445694
0.06970990267815746
0.09809443793170346
0.20645503955030453
0.2615178072443346
0.22117692724371607
0.15363097676580906
0.138272580019139
0.1216512453289775
0.22863068642615564
0.260682141374506
0.21885703363894027
0.17300046736122668
0.12706880897039358
0.1473861553537732
0.23570169432472884
0.24072151919509543
0.20509210706479103
0.16734615326126198
0.16970474759955115
0.1682915765636328
0.24366489197305824
0.2385382116184691
0.19241250239926638
0.171716563417214
0.17848406879347475
0.19545312282348118
0.25138951021946054
0.23186161551071915
0.18502551078051915
0.17545492928013293
0.15923854411281574
0.2151538892103375
0.2516975975671682
0.2176744785172841
0.17650905993860364
0.16136510076660696
0.22760867220969194
0.23404361895500575
0.2465543745180117
0.2146272848714812
0.16798320624748897
0.17462865610241912
0.21524627528767515
0.24218338922899219
0.2594874506763575
0.21401614331049848
0.16209895966041207
0.18910933493934484
0.20021016183969478
0.2585266655653611
0.26344746495122884
0.20996348680101212
0.16108807402601988
0.14547952995551533
0.20359400353925913
0.27070010626559227
0.2583767743260996
0.2060695618940018
0.14856873280890295
0.17203816278208559
0.19679212111940142
0.272506611541663
0.25819031115878865
0.20624791699969894
0.1511759826929505
0.152638239935621
0.21443918311728188
0.26878633348409164
0.2567994656348422
0.20259771948939506
0.15543929549320998
0.14687432373842096
0.2519621277057769
0.2699593654075547
0.264816113666548
0.21275551519072017
0.15755634345156896
0.15925403027201115
0.19617544762039668
0.26830655640793694
0.2593529817439102
0.22114489237854007
0.16699771209078518
0.1478668580506312
0.25848921109871287
0.2596894645443325
0.26925429949348817
0.22921809338994792
0.17519087124288518
0.16676602797170667
0.24061319469551487
0.25152673199313846
0.28522059501671854
0.24107828754830588
0.1937334722441112
0.15468047245743977
0.26598032059707266
0.23687680638997893
0.272393066396407
0.2645294868851746
0.20379415922044286
0.18223976360361138
0.24920265155552324
0.21994593797338527
0.26817216495713125
0.2731628537677732
0.22238339208094854
0.19596216004713227
0.24576404482763206
0.19847908327207142
0.27172751794138605
0.3015899240988438
0.24654414267472335
0.20502344153661192
0.23859483762738773
0.1777976898153464
0.25367187977689976
0.3106602120486647
0.27108810931153826
0.24117917741189576
0.21285463117565367
0.1505793922707707
0.2359563882115485
0.3119147022517468
0.30407184028782375
0.2878781526644816
0.19891301185747054
0.12031782332944058
0.20748007298338966
0.309755505227106
0.3146421578013009
0.36271555167677033
0.16266501251058474
0.06358466785329162
0.14728754421963852
0.27478145376509344
0.29083870640268544
0.4457517403058328
0.1575548003635699
0.2019064235005661
0.26214496873282866
0.3089538580196056
0.3657922614861784
0.4235521738406106
0.5314546080910989
0.6400682753876527
0.7170409365626073
0.8427415315718808
1.014652348241242
1.1003746966268646
1.1480766145457604
1.1948697613199857
1.2727475688553211
1.273641651642365
1.302551627866317
1.3125416329241666
1.305667774476447
1.2929857736243715
1.283573979881623
1.2717661187370841
1.2370010145594592
1.2115755641564563
1.1868727940703288
0.21434878828631404
0.24449879513836814
0.28074956121591244
0.4310942362432547
0.4756758266454654
0.5718646023827105
0.7359932376177735
0.8217559185436825
0.9719367132223624
1.0875174595467074
1.2124198504325039
1.260847629794099
1.3194580628791281
1.3111377522713377
1.3669141893812204
1.3640848434747268
1.3278808606024095
1.3203733929162458
1.297449930098651
1.2876305862268695
1.2647426530599943
1.2443317066473676
1.2114287782271174
1.1777412020842593
0.21656001857211515
0.3126005905119466
0.320544921568679
0.4271584267292872
0.5584866268450217
0.6661090217208598
0.7960845414560254
0.939007366159479
1.1040420574730199
1.209467314112177
1.2837718248009211
1.3438460831049373
1.3879975818325725
1.3476862495791053
1.3750579236224332
1.3610032642044643
1.3331588568574428
1.3314805133561718
1.2952332620898417
1.2763211710122842
1.2736018347740434
1.2354999550652894
1.2142362450050577
1.1792850750532815
0.20836269467294383
0.31116274386562837
0.395743520137041
0.5088427277458912
0.6329680618783846
0.756907141768562
0.9160874626234886
1.0811266334889604
1.1775533586295723
1.2750487091874203
1.3545865823131638
1.3776280160626126
1.409728692383013
1.3760669196632638
1.3687171145943782
1.3632281905298536
1.3432130794680517
1.32820866194046
1.2836849215453228
1.2850044129321907
1.2438409785039455
1.2160041788610632
1.1970236122238802
1.15512938660459
0.2459234878845235
0.30343403372603706
0.4279549453885774
0.5458731970005929
0.6954193916213703
0.9070007347040564
1.0413992011181081
1.1911883166768389
1.2811161059975986
1.3509836628870298
1.3846254870891168
1.419430874770784
1.3976879694024593
1.3852959185836218
1.3719164338934637
1.3510311710123621
1.3450858377884762
1.2932760175956537
1.2733710524830106
1.2741248723297773
1.2456908528043984
1.2164064945057125
1.1760213398834758
1.1415772894425875
0.22111764833586095
0.30230611923415945
0.4659035593671686
0.6516956338975624
0.7946096146005305
0.9683287176398153
1.130796410347317
1.2536314877064951
1.3292427239506064
1.3652563385525134
1.3903146181902852
1.3917689341941726
1.4025376625693893
1.3775145202446324
1.3995869501662441
1.3707264559510586
1.3166972477597618
1.3107674646073593
1.3009607574627697
1.2663737047975954
1.2327649085754
1.2208942784084857
1.1627399231463857
1.1251380881934505
0.22788775142467937
0.373781550914968
0.5282230262786406
0.7325945474328894
0.9071759223158126
1.0798131398087787
1.2380841715437114
1.3228920877742807
1.366042307192382
1.4148322294671223
1.4328319076387657
1.4032854585727956
1.4067853735583038
1.3757253998073153
1.359653521244819
1.3579908925559026
1.327958779217022
1.289141097656343
1.2774559072917708
1.2529828073846463
1.223547347325397
1.1749638751637819
1.1541185889398766
1.1184060085365104
0.25617186691163774
0.46471515379906514
0.5997550448406981
0.8308550971782215
0.9951486882480651
1.146821600075052
1.299799808555882
1.34358570015401
1.3970853008601862
1.4027987541563554
1.4026326018191462
1.398568130659644
1.3859497654199708
1.3667103999988235
1.3698805444640951
1.3359342409755568
1.2899308080644658
1.2964694065215896
1.250853370291427
1.223273336181991
1.2077232924346628
1.167251230400308
1.141657624893824
1.104214691256212
0.27931200499944664
0.4665432008525026
0.6770692024820733
0.9294529934872802
1.0918472683667733
1.2464414030186024
1.3660189429833505
1.365497099141792
1.4117051589349692
1.386452425265508
1.3897767123770244
1.3755495106978817
1.3836595058211056
1.3477640151690513
1.3474569123509492
1.3259117467681485
1.3009878472025707
1.280118677448623
1.2320160333794699
1.2196301133618024
1.1912130037808886
1.161430086875402
1.1241644602554268
1.0903148538328349
0.3220710908218667
0.5130344084686465
0.810136408778968
0.9892398368784656
1.150470836395312
1.2637360011627394
1.3511991896931779
1.4053075279532967
1.4201789163216485
1.3884052546745909
1.393305259843355
1.3703868910577168
1.3715991562668401
1.3229925672362488
1.3023090331160976
1.2951014048119827
1.277266613728923
1.2498685921249892
1.2355983571498812
1.2177488394996758
1.1807361981633664
1.1404277881287916
1.123171483236115
1.0803109730979414
0.34312040875226973
0.5788063741756975
0.8327971730851444
1.0665491881696672
1.1934263926199637
1.3403858850902384
1.3429874035945686
1.402147913509406
1.3874841116582435
1.375482324531264
1.361532277215836
1.3621393727866078
1.324015843216613
1.3306929623098829
1.303233054215982
1.2680626535230843
1.2805729260349057
1.243171282380114
1.2284539762227527
1.1945319940521326
1.1683339991198654
1.1383622272459073
1.1199234069629715
1.0762245893636426
0.3635278392297939
0.6598102512485654
0.9316687714514662
1.1508992967287015
1.2369374973493823
1.3360153923493594
1.3713249889591523
1.3859945121920285
1.3901633049251374
1.3719402831261773
1.3397113393037707
1.3292210758780534
1.3173097123312247
1.324743439142663
1.2957867020085612
1.2545330409910818
1.2557763186603135
1.2208954694041836
1.2191681155843577
1.1773643648233267
1.164524362974137
1.1307749372172025
1.1023468639610337
1.0603237584815206
0.412562281844216
0.7227202143446148
1.0693977579826186
1.183174033339328
1.2790191132680258
1.3548493813989984
1.367015800886316
1.3824912390415716
1.3422629142225921
1.3690707270736555
1.3692889965373334
1.3276220285334337
1.3181899251065243
1.2825645092545919
1.2731149177037715
1.2540500180449432
1.244212292519636
1.2112217710467288
1.1920605853330064
1.1619628050854562
1.1419296332846396
1.128479113909298
1.0920204477684212
1.055322794805523
0.4388687141542302
0.8096643625500751
1.127257321189243
1.2467192754805663
1.346173347044242
1.4056074520963115
1.40957373266007
1.3720000083681418
1.3429772758170528
1.3499106262257239
1.3144268888201616
1.3248928219934952
1.2995162802347426
1.2699279876745466
1.2609460773673997
1.2454806412709742
1.2202062608021096
1.201656647602485
1.1900780925612893
1.1515324024049591
1.1438257305801707
1.1165506111707426
1.0844224664726207
1.0546525184527358
0.5156465191081209
0.8352425014167508
1.1462619481439251
1.3115853393460646
1.3416480680194491
1.3659300774988206
1.3729050963068241
1.3776844336261438
1.325919804423079
1.3013898126572525
1.3037766131163677
1.2803489014598777
1.3153463864931862
1.2685994801814569
1.2586268713089548
1.2169332663914647
1.2000580448902776
1.1995561195659394
1.1919015171866127
1.1563270162778754
1.133879708076755
1.1051133609818609
1.0812300356636795
1.0501810560777534
0.5325050169122139
0.921230455315592
1.1848074077839947
1.3073042962942911
1.363028304973023
1.363177516799263
1.3645796905617584
1.33339154704475
1.3437806119834628
1.3147551068774401
1.2848130751201816
1.2579345362464174
1.2773577890275072
1.238221309936803
1.2371508152419388
1.2207800776074045
1.1985888840669006
1.1609201376270826
1.1669192730365285
1.1468162722475104
1.1260956995279128
1.1043244188019765
1.0759907357793757
1.040182395914002
0.553400121295712
1.0182323085168172
1.21254409780151
1.312425432513554
1.3881341873163926
1.325552739867975
1.340410494647212
1.3358566972125676
1.3089159389273917
1.2944135104514694
1.2545195290630509
1.2522301412012962
1.2394583088241626
1.2258671300261255
1.2189690827210022
1.2172635545309636
1.1832392109418663
1.168341072448629
1.1599503684991928
1.1355457882820723
1.1208058281095317
1.0905894737138462
1.0685472728305319
1.0340632560012382
0.6200689002524942
1.063740306006916
1.2428477491339647
1.3180887455387336
1.327961183260657
1.3308410395795385
1.3041980661953803
1.3050785048631537
1.3104088275085515
1.2476783859293852
1.2681485378328743
1.2443829967310995
1.244947149299873
1.2164266782152473
1.2049930167441194
1.2044833801913926
1.189276109437222
1.169485981177585
1.1534030178344727
1.136606018164
1.111878613925142
1.0858303886136784
1.061122442773941
1.0316227293899973
0.6715409019274897
1.1339375850292894
1.2636122426231837
1.3411506823393662
1.3293010817499689
1.3141929526713054
1.2931702932487101
1.253563562399494
1.2761456931301645
1.2640140882770552
1.2373943753720087
1.216281770230421
1.2208029397950182
1.2093142923154363
1.1863411916185471
1.1767752741317654
1.169343655853582
1.1550771808037368
1.1452176131667828
1.1183786130127047
1.1022325214245698
1.0821661803439966
1.056616991019973
1.0260817240425484
0.7407750843633061
1.1685413974959875
1.2953779732964943
1.312376673640025
1.3267685746827165
1.283171527003008
1.273274260619684
1.256533723532471
1.2501860537843918
1.2332453490666908
1.2140124971871655
1.2010737824169218
1.18735912433309
1.1808998732710376
1.1743998462358038
1.183884413583613
1.1594154798731306
1.141400936632321
1.1254305160672473
1.1128738642461145
1.1011002990054377
1.0792532465785154
1.048813866485301
1.0240689878776987
0.7923087978720991
1.1876223289206256
1.3124157069394071
1.3106582730216854
1.2356763744625074
1.2679091329715846
1.2400098508037856
1.2371630094667176
1.210081759100268
1.1886016084492592
1.1746968263132225
1.1884495443772405
1.1681501185499408
1.1805111976518659
1.172485434838971
1.1603882242716186
1.1432474598227877
1.1359153979206693
1.1169936422342097
1.1083896791026766
1.0834923051723795
1.0746895644534675
1.0442937055896042
1.0167888492034869
0.8664806946725465
1.1988335965982733
1.2509068952018714
1.244625868306444
1.256499831439283
1.1972553791947276
1.2259479503615398
1.200405316757148
1.187327560189705
1.1559591892361591
1.176287878790741
1.1766405264220106
1.1675088593999188
1.164931870937283
1.1507495820714984
1.1439784334078387
1.1307273072207444
1.1178454374435431
1.1057876229009023
1.0951225371728726
1.0783325550716283
1.063368105078566
1.041132080600605
1.0115937553838377
0.9386510332042087
1.178955080942412
1.2146291684625934
1.1891205724327307
1.2004918936556015
1.1805775887991876
1.1723298765526666
1.1755957937792565
1.1658095816097034
1.1545537940894168
1.1544500054697173
1.1473315823036954
1.147553643257244
1.1428419742917457
1.1410293658072692
1.1281866074112514
1.1161795293006205
1.1098343007358211
1.0947711185093358
1.095671638971153
1.0741077292179206
1.0587770232633438
1.030775867302726
1.008407400151199
1.0483644442197388
1.1359056548628497
1.159073545284056
1.1448857311695948
1.1574076355447533
1.1389888143444116
1.1394483720885893
1.1312804835092014
1.1255994432717091
1.13351358244497
1.1393718199077085
1.1252438916501475
1.1299372075157483
1.1196569545743464
1.1176456577466076
1.1137998109605503
1.1036683656421578
1.1019395743300766
1.0888862296972355
1.0809223121043485
1.0638719393936464
1.05042757707834
1.0292033132109466
1.0069307877892129
0.06865314701829608
0.07789704975221959
0.09777528089883078
0.12394002508296886
0.17533921191406723
0.5871583884381935
0.06501313738439232
0.05265586054841648
0.09575943811694115
0.1341599139393537
0.1976706900528964
0.41223968842854836
0.06356815943378093
0.058799367580808254
0.09308868389508673
0.12420343619557198
0.2114987190087989
0.3669088523568129
0.05868374921623841
0.06332815402469291
0.09366775641214334
0.1397477965943116
0.207680070657182
0.3398233360149478
0.05453004802633597
0.06496988535290063
0.10809242629867274
0.12676035349363005
0.18348154501110897
0.32126201161334345
0.050523858928501156
0.04711539044803806
0.08399091282507987
0.12549591269384988
0.19786011720413418
0.3031998013928971
0.05328187128284401
0.056096247288038
0.09899055868300177
0.12171784851546502
0.19152545096879953
0.2792403737831356
0.05687229620729278
0.06224362571285316
0.09434002110077408
0.10952568873427937
0.17491822671367144
0.25725602420574456
0.04707012683521866
0.07346541704698073
0.07529734568271385
0.12045680019135174
0.1678210502283418
0.24394651824380043
0.0501245524558781
0.07930461100871308
0.08384145469982054
0.11201900184130092
0.15259473387273625
0.23078361409436046
0.04815638825583257
0.07447678804128663
0.08311035923064314
0.1030741939474436
0.15236057231658257
0.2124679738120652
0.038621556158372455
0.06994270368579875
0.08585506547855934
0.1013682733993759
0.15999898110380756
0.21682942311623032
0.02830039772886425
0.05257736114051395
0.07067973392813448
0.11358826031353486
0.15076573574597954
0.22155166248731148
0.035464597485883015
0.04372917670539428
0.05582361949705608
0.12275686889616932
0.1553379640257637
0.2167003269588652
0.04604573833637804
0.06539704058885532
0.08650272629882841
0.11772271871810483
0.15856357355375197
0.2387807069031283