/*--------------------------------*- C++ -*----------------------------------*\
  =========                 |
  \\      /  F ield         | OpenFOAM: The Open Source CFD Toolbox
   \\    /   O peration     | Website:  https://openfoam.org
    \\  /    A nd           | Version:  11
     \\/     M anipulation  |
\*---------------------------------------------------------------------------*/
FoamFile
{
    format      ascii;
    class       volScalarField;
    location    "2";
    object      epsilon;
}
// * * * * * * * * * * * * * * * * * * * * * * * * * * * * * * * * * * * * * //

dimensions      [0 2 -3 0 0 0 0];

internalField   nonuniform List<scalar> 
2880
(
2.59153
3.82608
5.66858
5.15809
4.21783
3.36002
1.01182
2.79077
3.3971
2.77767
1.94128
1.08928
0.273151
2.3934
2.54843
1.85882
1.19928
0.661648
1.35662
2.2339
2.13721
1.46261
0.928779
0.545466
1.78108
2.12404
1.88787
1.26927
0.820124
0.514475
2.16237
2.03311
1.72896
1.17533
0.783779
0.518359
2.48556
1.95511
1.62896
1.13801
0.786956
0.54363
2.74705
1.90108
1.57064
1.13732
0.816054
0.586004
2.94832
1.86803
1.54383
1.16086
0.86714
0.643894
3.09294
1.85228
1.54266
1.20697
0.937003
0.718092
3.18476
1.85133
1.56007
1.27129
1.02536
0.81064
3.2267
1.86431
1.59776
1.35263
1.13303
0.924552
3.22525
1.8923
1.65216
1.4504
1.26141
1.06365
3.20885
1.93993
1.72172
1.56414
1.41204
1.23242
3.16979
2.00202
1.80431
1.69276
1.58594
1.43565
3.10016
2.0713
1.89654
1.83385
1.7827
1.67763
2.99181
2.13769
1.99348
1.98299
1.99904
1.96029
2.83556
2.18742
2.08899
2.13174
2.23265
2.28626
2.62015
2.20269
2.17332
2.27408
2.473
2.66644
2.33145
2.17825
2.23424
2.41163
2.71046
3.11479
1.95655
2.09589
2.28829
2.55556
2.94631
3.68432
1.49311
1.98355
2.39911
2.76868
3.25039
4.60714
1.09711
2.07609
2.82225
3.32346
3.88692
6.62731
3.00584
3.88995
5.33821
5.9535
6.14767
6.19935
0.411411
0.140354
0.0684424
0.0375259
0.0218902
0.0132101
0.00815319
0.00513687
0.00331007
0.00219098
0.00149904
0.00106808
0.000798729
0.000630711
0.000526832
0.000463548
0.00042562
0.000403167
0.000390012
0.000382416
0.000378211
0.000376138
0.000375261
0.000375004
0.328869
0.140403
0.0718686
0.0398431
0.0232607
0.013991
0.00860253
0.00539948
0.00346596
0.00228481
0.0015562
0.00110331
0.000820584
0.000644255
0.000535122
0.000468518
0.000428542
0.000404891
0.000391056
0.000383079
0.000378628
0.000376395
0.000375407
0.000375057
0.29497
0.144039
0.0766061
0.0429415
0.025055
0.0150205
0.00920311
0.00575671
0.00368242
0.00241829
0.00163987
0.00115656
0.000854885
0.000666481
0.000549512
0.000477789
0.000434507
0.000408769
0.000393631
0.000384823
0.000379789
0.000377089
0.000375791
0.000375224
0.288
0.151834
0.0829151
0.0468648
0.0273153
0.0163284
0.00997498
0.00622187
0.00396833
0.00259734
0.00175403
0.00123057
0.000903552
0.000698789
0.000571043
0.000492137
0.000444077
0.000415199
0.000398013
0.000387837
0.000381824
0.000378335
0.000376509
0.000375618
0.296179
0.163946
0.0911141
0.0517212
0.0301132
0.0179599
0.0109468
0.00681345
0.00433581
0.00283004
0.00190414
0.00132912
0.000969249
0.000743103
0.000601136
0.000512623
0.000458048
0.000424779
0.000404646
0.000392452
0.000384974
0.000380385
0.000377767
0.000376358
0.31659
0.180415
0.101405
0.0577047
0.0335629
0.0199817
0.0121591
0.00755674
0.0048012
0.00312722
0.00209753
0.00145725
0.00105554
0.000801988
0.000641681
0.000540669
0.000477497
0.000438326
0.000414154
0.000399156
0.000389641
0.000383515
0.00037976
0.00037759
0.346476
0.201619
0.114263
0.0651158
0.0378316
0.0224883
0.0136672
0.00848585
0.00538625
0.0035032
0.00234387
0.00162165
0.00116713
0.000878851
0.000695195
0.000578174
0.000503886
0.000456973
0.000427419
0.000408639
0.000396342
0.000388066
0.000382648
0.000379415
0.385966
0.22854
0.130421
0.0743843
0.043155
0.0256104
0.0155466
0.00964639
0.00611976
0.00397684
0.00265589
0.00183115
0.00131031
0.000978248
0.000765072
0.000627734
0.000539235
0.0004823
0.000445657
0.000421794
0.000405687
0.000394447
0.000386856
0.00038212
0.436438
0.262716
0.150924
0.0861114
0.0498601
0.0295272
0.0178995
0.0110993
0.0070398
0.0045729
0.0030503
0.00209734
0.00149334
0.00110623
0.000855848
0.000692826
0.000586256
0.000516432
0.000470512
0.00043987
0.000418617
0.000403391
0.000392915
0.00038606
0.50023
0.306307
0.177227
0.101137
0.0584032
0.0344868
0.020865
0.0129263
0.00819678
0.00532394
0.00354894
0.00243541
0.00172705
0.00127073
0.000973472
0.000778003
0.000648496
0.000562161
0.000504184
0.000464578
0.000436435
0.000415841
0.000401443
0.000391575
0.580626
0.362269
0.211354
0.120644
0.0694269
0.0408346
0.024634
0.0152379
0.00965789
0.00627282
0.00418039
0.00286509
0.00202556
0.00148209
0.00112569
0.00088919
0.000730574
0.000623141
0.000549581
0.000498214
0.000460893
0.000433037
0.000413234
0.000399075
0.681949
0.434578
0.256117
0.146311
0.0838473
0.0490594
0.0294727
0.0181852
0.0115134
0.00747634
0.00498208
0.00341214
0.00240716
0.00175371
0.00132256
0.0010341
0.000838522
0.000704169
0.000610552
0.000543847
0.000494355
0.000456669
0.00042937
0.000409091
0.809708
0.528528
0.315421
0.180533
0.102985
0.0598619
0.0357569
0.0219776
0.0138862
0.00901042
0.00600338
0.0041101
0.00289559
0.00210294
0.00157712
0.00122277
0.000980211
0.000811525
0.000692162
0.000605548
0.000540006
0.00048906
0.000451345
0.000422316
0.970734
0.651044
0.394629
0.226726
0.128756
0.0742596
0.0440258
0.0269102
0.0169455
0.0109777
0.00730989
0.00500302
0.00352171
0.00255223
0.00190623
0.00146818
0.00116586
0.000953399
0.000801043
0.000688691
0.000602103
0.000533374
0.000481227
0.000439681
1.17326
0.810978
0.500978
0.28972
0.16395
0.0937443
0.055064
0.033405
0.0209288
0.013519
0.0089898
0.00614912
0.00432582
0.00313065
0.00233161
0.00178706
0.00140869
0.00114042
0.00094585
0.000800334
0.000686298
0.000593884
0.000521855
0.000462441
1.42704
1.01923
0.643899
0.376196
0.212593
0.120512
0.0700259
0.0420753
0.0261743
0.0168305
0.0111635
0.00762632
0.00536097
0.003876
0.0028813
0.00220094
0.0017257
0.0013863
0.00113782
0.00094971
0.00080006
0.000676316
0.000577099
0.000492276
1.74364
1.28876
0.835071
0.495043
0.280376
0.157778
0.0906215
0.0538237
0.033172
0.021191
0.0139982
0.00954061
0.00669796
0.00483793
0.00359168
0.00273754
0.00213869
0.00170868
0.00139145
0.00114885
0.000953245
0.000788344
0.000652211
0.000531385
2.12814
1.63571
1.08808
0.657402
0.375046
0.210173
0.11938
0.069991
0.0426426
0.027003
0.0177306
0.0120388
0.00843292
0.00608265
0.00451052
0.00343278
0.00267573
0.00213016
0.00172542
0.00141337
0.00115884
0.000940292
0.000754371
0.000582585
2.58213
2.0753
1.41673
0.875953
0.506491
0.284133
0.15999
0.0925711
0.055657
0.0348579
0.022702
0.0153287
0.0106992
0.00770025
0.00570172
0.00433405
0.00337337
0.00267997
0.00216381
0.00176354
0.00143401
0.00114619
0.00089358
0.000649437
3.11898
2.61737
1.83157
1.16274
0.686018
0.388032
0.217661
0.124497
0.0738117
0.0456338
0.0294134
0.0197101
0.0136859
0.00981645
0.00725309
0.00550558
0.00428064
0.00339696
0.0027384
0.00222611
0.00180172
0.00142551
0.00108435
0.000736589
3.78523
3.26495
2.33583
1.52549
0.924246
0.531631
0.299303
0.169957
0.0994667
0.0606416
0.038609
0.0256234
0.0176672
0.0126112
0.00928912
0.00703783
0.00546629
0.00433551
0.0034937
0.00283855
0.00229441
0.00180682
0.00134952
0.000851039
4.69661
4.03821
2.92557
1.96372
1.22752
0.724255
0.413155
0.2346
0.13602
0.0818236
0.0513995
0.0337234
0.0230473
0.0163477
0.0119911
0.00906292
0.00703199
0.00557776
0.00449881
0.00366083
0.00296568
0.00233962
0.00173226
0.00101055
6.36341
4.96834
3.60207
2.4707
1.5953
0.971992
0.56745
0.325337
0.188114
0.11199
0.0694311
0.0449856
0.030426
0.0214145
0.0156263
0.0117774
0.00913262
0.00725474
0.00587231
0.00480697
0.00393101
0.00314443
0.00235605
0.00135311
9.46601
6.75128
4.49426
3.06078
2.02565
1.27666
0.768608
0.449526
0.261595
0.155025
0.0950903
0.0608511
0.0406913
0.0283823
0.0205832
0.0154643
0.0119918
0.0095607
0.00780299
0.00648499
0.00544843
0.00458672
0.00389863
0.00367
2.60007
3.63758
4.36042
4.19923
3.40453
3.05138
1.03247
1.7145
2.16116
2.23218
2.05082
2.3197
0.269289
1.47178
1.81358
1.86363
1.81737
2.06085
1.29695
1.53766
1.7502
1.78635
1.77616
1.97977
1.68037
1.63799
1.76004
1.78971
1.80249
1.97579
1.99693
1.72877
1.79873
1.82793
1.85893
2.01745
2.25528
1.79968
1.84174
1.8769
1.92476
2.07891
2.46416
1.8497
1.88043
1.92573
1.9889
2.14359
2.62981
1.88064
1.91248
1.96944
2.04508
2.20087
2.75685
1.8974
1.9383
2.00615
2.08969
2.244
2.84996
1.90571
1.95935
2.0358
2.12102
2.26767
2.91096
1.90969
1.97738
2.05966
2.13997
2.27162
2.92253
1.90889
1.99437
2.08002
2.14939
2.25978
2.88728
1.90312
2.01266
2.09992
2.15338
2.23508
2.79909
1.89339
2.03482
2.12301
2.15738
2.20318
2.65851
1.88085
2.06302
2.15422
2.16799
2.17084
2.46701
1.86634
2.09887
2.19989
2.19388
2.14711
2.2278
1.84992
2.14526
2.26805
2.24872
2.13887
1.94216
1.83183
2.20546
2.36826
2.35027
2.15997
1.61428
1.81352
2.2824
2.51593
2.5239
2.25154
1.25448
1.79941
2.37938
2.74099
2.8207
2.49185
0.264694
1.80445
2.52009
3.09998
3.34649
3.07282
1.01294
1.99701
2.85452
3.76248
4.37211
4.68483
2.44144
3.31209
4.40877
5.61016
6.23468
6.16046
8.74133
7.33016
5.21474
3.64893
2.49126
1.62992
1.01826
0.613296
0.36296
0.215926
0.131698
0.083401
0.0551369
0.0380734
0.027405
0.0205007
0.0158886
0.0127229
0.0105067
0.0089436
0.00785519
0.00715017
0.00688614
0.00730314
7.04563
7.01335
5.77468
4.1817
2.95628
2.01417
1.31141
0.81951
0.498172
0.300472
0.183595
0.115533
0.0756109
0.0516583
0.0368429
0.0273791
0.0211538
0.01697
0.0141424
0.0122791
0.0111566
0.0106683
0.0108307
0.0116549
4.81046
6.5978
5.88631
4.52948
3.35756
2.39447
1.63245
1.06482
0.670625
0.414261
0.255922
0.161066
0.104685
0.0708032
0.0499687
0.0367963
0.0282515
0.0226213
0.0189355
0.0166421
0.0154193
0.0150894
0.0155513
0.0166831
3.45666
6.25734
5.84869
4.75767
3.67361
2.74109
1.95997
1.33923
0.879289
0.561186
0.353923
0.224619
0.145776
0.0978361
0.0683176
0.0497598
0.0378496
0.0301264
0.0251892
0.0222288
0.0207554
0.0204716
0.0211287
0.0225123
2.93792
5.65617
5.71825
4.9717
3.91905
3.03444
2.26911
1.6256
1.11675
0.741308
0.481526
0.311012
0.203056
0.135865
0.0940449
0.067721
0.0509178
0.040132
0.0333295
0.0293111
0.027331
0.0269238
0.0276744
0.0292611
2.71953
4.87838
5.63504
5.13476
4.1016
3.26392
2.53905
1.9034
1.36956
0.949368
0.639559
0.424083
0.280963
0.188711
0.130035
0.0927206
0.0688557
0.0535818
0.0439829
0.0382968
0.0354088
0.03462
0.035337
0.0370575
2.62332
4.21851
5.48921
5.23958
4.34009
3.46186
2.76274
2.15302
1.61929
1.17368
0.82369
0.564798
0.38303
0.260426
0.179823
0.127479
0.0936244
0.0718374
0.0580709
0.0497974
0.0453889
0.043822
0.0443232
0.046059
2.5856
3.76612
5.19767
5.25277
4.65386
3.67834
2.95588
2.36646
1.8492
1.39876
1.0242
0.729674
0.510272
0.354238
0.247125
0.1753
0.127821
0.0968019
0.0769268
0.0647169
0.0578698
0.0549129
0.0549207
0.0564714
2.57635
3.48543
4.78869
5.23345
4.89949
3.97245
3.15516
2.55072
2.04929
1.60902
1.22721
0.910019
0.659503
0.470963
0.334807
0.239592
0.17456
0.130981
0.102416
0.08437
0.0737511
0.0685031
0.0673757
0.0686429
2.57601
3.30783
4.39865
5.12117
5.01956
4.34547
3.41498
2.73784
2.22529
1.79541
1.41894
1.09354
0.822846
0.607515
0.443387
0.32284
0.236963
0.177334
0.136979
0.11059
0.0943168
0.085429
0.0822539
0.0829349
2.56758
3.18237
4.08336
4.89091
5.02354
4.66701
3.76724
2.97138
2.40092
1.96159
1.59129
1.26825
0.989444
0.756652
0.569688
0.425125
0.317065
0.238676
0.183425
0.14577
0.121368
0.106948
0.100367
0.0998726
2.54162
3.07513
3.83405
4.61181
4.9658
4.81736
4.17312
3.29431
2.62082
2.13121
1.74955
1.42808
1.1489
0.908815
0.707174
0.543315
0.414616
0.316671
0.244338
0.192635
0.157271
0.134861
0.123018
0.120141
2.49578
2.96609
3.62299
4.33744
4.82495
4.84464
4.50109
3.69046
2.92504
2.34657
1.91802
1.58138
1.29906
1.05539
0.847101
0.671358
0.526565
0.410884
0.321163
0.253672
0.204785
0.171531
0.151868
0.144883
2.43179
2.84574
3.42597
4.07727
4.61222
4.80463
4.65212
4.09416
3.31909
2.65234
2.14212
1.75706
1.45329
1.20083
0.985343
0.801956
0.646942
0.51784
0.412968
0.329997
0.266349
0.219782
0.189263
0.175655
2.35395
2.71154
3.22748
3.82199
4.3634
4.68397
4.67836
4.38327
3.73468
3.05189
2.46566
2.00451
1.64765
1.36434
1.13229
0.937857
0.77311
0.633672
0.516848
0.420587
0.342942
0.282232
0.238163
0.2146
2.26802
2.56523
3.02031
3.5608
4.08734
4.47607
4.61479
4.4945
4.08348
3.48349
2.88509
2.36125
1.93308
1.59179
1.31926
1.09817
0.915452
0.762351
0.633389
0.525043
0.434807
0.360756
0.302044
0.264717
2.18081
2.41108
2.80367
3.28767
3.78388
4.19988
4.44428
4.4604
4.26708
3.83776
3.31967
2.79968
2.32793
1.92585
1.59472
1.32551
1.10627
0.926123
0.776639
0.651698
0.546953
0.45924
0.38598
0.331125
2.10004
2.25506
2.58152
3.00336
3.45445
3.8656
4.16451
4.29734
4.24812
4.02155
3.64624
3.20969
2.76342
2.3441
1.9719
1.6533
1.3861
1.16402
0.979807
0.826648
0.698862
0.591768
0.501797
0.424918
2.03219
2.10435
2.36138
2.71557
3.10739
3.48528
3.79694
3.99315
4.05227
3.97476
3.76279
3.45482
3.09884
2.72828
2.36917
2.038
1.74284
1.48575
1.26514
1.07744
0.918591
0.783834
0.67163
0.567322
1.9817
1.9672
2.15316
2.4379
2.76055
3.08264
3.36713
3.58017
3.69463
3.7085
3.62449
3.44588
3.20511
2.92766
2.63518
2.34465
2.0679
1.81241
1.5819
1.37695
1.19694
1.03887
0.905319
0.775884
1.95681
1.85154
1.96723
2.18732
2.43935
2.69294
2.92318
3.10822
3.22814
3.27967
3.26158
3.17697
3.03487
2.85391
2.64807
2.43018
2.21077
1.9976
1.79626
1.6103
1.44085
1.28744
1.15428
1.02447
1.97038
1.75745
1.81226
1.98017
2.17083
2.35759
2.52343
2.65507
2.74158
2.78195
2.77914
2.73154
2.64634
2.53249
2.39826
2.25123
2.09789
1.94347
1.79183
1.64606
1.50924
1.38315
1.27224
1.17534
2.04351
1.68349
1.69385
1.82812
1.97786
2.11712
2.22874
2.30311
2.33998
2.34593
2.31899
2.26457
2.1894
2.09958
2.00027
1.89573
1.78948
1.68438
1.58273
1.48618
1.39592
1.31293
1.2395
1.17815
2.13002
1.62004
1.61439
1.74171
1.88022
2.00404
2.09196
2.13634
2.14812
2.12186
2.06388
1.98386
1.89006
1.78927
1.68667
1.586
1.48985
1.39998
1.31757
1.24355
1.17868
1.12386
1.08028
1.04815
1.88002
3.00152
6.0362
6.82979
6.6226
6.23204
0.82136
2.31123
3.55311
3.81789
3.60487
3.08444
0.232687
2.0135
2.62282
2.67352
2.42174
2.0313
0.260554
1.81729
2.17004
2.12214
1.88717
1.6256
0.280659
1.66671
1.88631
1.79774
1.60357
1.44555
1.2796
1.55367
1.68367
1.58561
1.4356
1.34951
1.39877
1.44904
1.52857
1.43536
1.32781
1.28336
1.49287
1.35932
1.4049
1.32235
1.24878
1.22965
1.55929
1.2827
1.3032
1.23243
1.18273
1.18073
1.59887
1.21655
1.2175
1.15711
1.12217
1.1326
1.61095
1.15931
1.14378
1.09073
1.06468
1.08364
1.60192
1.1103
1.0796
1.03017
1.00946
1.03464
1.5739
1.07071
1.02326
0.973897
0.956411
0.98771
1.53551
1.04053
0.973577
0.921201
0.905968
0.946162
1.48489
1.01661
0.929332
0.871732
0.859046
0.91385
1.42052
0.993928
0.88883
0.825279
0.816663
0.895343
1.33947
0.962792
0.849459
0.781748
0.779403
0.895795
1.21887
0.903553
0.807628
0.741616
0.747576
0.919405
0.277598
0.774377
0.76059
0.706578
0.722692
0.974511
0.267025
0.680611
0.71768
0.679745
0.707288
1.06594
0.251443
0.628934
0.696774
0.669747
0.707719
1.17418
0.230478
0.647507
0.721523
0.697835
0.735836
1.28231
0.869964
0.87608
0.88968
0.854824
0.850138
1.49393
2.1887
2.11605
1.92155
1.74082
1.45573
1.5505
1.93772
1.55232
1.57258
1.70893
1.85361
1.98303
2.07181
2.113
2.12008
2.08375
2.01408
1.92244
1.81831
1.70916
1.60047
1.49598
1.39808
1.30817
1.22691
1.1546
1.09148
1.03801
0.995052
0.962683
1.68365
1.49208
1.55977
1.71668
1.88973
2.05126
2.17168
2.23372
2.25143
2.21857
2.14426
2.04323
1.9276
1.80656
1.68656
1.57181
1.46479
1.36684
1.27849
1.19969
1.13033
1.07056
1.02078
0.98102
1.52233
1.45615
1.57134
1.76339
1.98414
2.20101
2.37814
2.48398
2.52596
2.5132
2.44498
2.34177
2.21974
2.09029
1.96104
1.83671
1.72001
1.61227
1.51394
1.42495
1.34512
1.2743
1.21157
1.15734
1.42971
1.4426
1.60006
1.83467
2.11586
2.40253
2.64094
2.78999
2.84945
2.81806
2.72417
2.59926
2.46029
2.31854
2.18114
2.05212
1.9334
1.82547
1.72804
1.64042
1.56189
1.49167
1.42756
1.3647
1.37221
1.44428
1.63565
1.91517
2.26203
2.61832
2.89371
3.02375
3.0146
2.93017
2.80971
2.66644
2.5147
2.36473
2.22263
2.09161
1.97279
1.86598
1.77034
1.68475
1.60822
1.53993
1.47859
1.41205
1.33523
1.44927
1.66964
1.99479
2.41085
2.82513
3.07004
3.11381
3.03235
2.8723
2.67928
2.48265
2.29645
2.12769
1.97873
1.8494
1.73777
1.6413
1.55743
1.48353
1.41824
1.35896
1.31075
1.24778
1.30779
1.45096
1.69831
2.0765
2.5788
3.02004
3.20897
3.10902
2.82078
2.48113
2.17198
1.90415
1.67879
1.4896
1.33536
1.21142
1.11147
1.02999
0.962766
0.90515
0.85687
0.808674
0.777806
0.723635
1.28111
1.44604
1.7244
2.18148
2.80917
3.26276
3.27854
2.94761
2.39341
1.92504
1.55548
1.26073
1.02598
0.846195
0.707652
0.600187
0.516656
0.451255
0.399606
0.357874
0.324548
0.294299
0.274043
0.244797
1.25042
1.43473
1.75764
2.35117
3.15418
3.53214
3.31229
2.64423
1.98909
1.52006
1.17668
0.91921
0.722453
0.569005
0.450071
0.358743
0.289438
0.237093
0.197272
0.166561
0.142941
0.123872
0.110034
0.0960259
1.21494
1.42189
1.81866
2.65266
3.62696
3.74454
3.22567
2.30635
1.69298
1.28063
0.984682
0.757633
0.57914
0.44028
0.333744
0.253309
0.193559
0.14986
0.118317
0.0953146
0.0783238
0.0656937
0.0566372
0.0503308
1.1773
1.42014
1.95342
3.17235
4.10931
3.85358
2.9013
2.01941
1.46972
1.09191
0.815598
0.606213
0.448304
0.331625
0.246561
0.184686
0.139417
0.106105
0.0816174
0.0637597
0.0508957
0.0419635
0.0364354
0.0339898
1.14344
1.45305
2.2404
3.94461
4.4304
3.82852
2.55259
1.75964
1.25728
0.90305
0.645664
0.457076
0.322701
0.229304
0.165181
0.121271
0.0910117
0.069851
0.0547759
0.0438901
0.036029
0.0306297
0.0275444
0.0269493
1.12281
1.56072
2.82478
4.75066
4.55492
3.38922
2.20028
1.50792
1.04807
0.727661
0.501186
0.344073
0.23755
0.165914
0.117689
0.085073
0.06292
0.0478462
0.0376101
0.0307387
0.0263035
0.0237522
0.0228586
0.0233294
1.12759
1.79611
3.84574
5.12618
4.47987
2.90023
1.8846
1.26772
0.854
0.57099
0.381006
0.256836
0.17615
0.123343
0.088282
0.0646184
0.0484277
0.0372901
0.0297032
0.0247176
0.0217187
0.0202982
0.0202615
0.0210849
1.17433
2.24144
5.08348
5.21306
3.97255
2.44129
1.58588
1.03871
0.674572
0.436504
0.285426
0.19009
0.129515
0.090519
0.0650172
0.0480739
0.0366682
0.0289506
0.023795
0.0205201
0.0187028
0.0180843
0.0184017
0.0194736
1.29277
3.06989
5.72312
5.14362
3.3315
2.08058
1.32136
0.83114
0.520607
0.330253
0.214107
0.142432
0.0973517
0.0684079
0.0494747
0.0369097
0.0285089
0.02292
0.019308
0.0171567
0.0161358
0.0160434
0.0166014
0.0177859
1.51174
4.42861
5.86396
4.67582
2.82743
1.7456
1.06664
0.647506
0.397618
0.249899
0.161709
0.10794
0.0743225
0.0527738
0.0386564
0.0292582
0.0229632
0.0187934
0.0161489
0.0146566
0.0140716
0.0142011
0.0148939
0.0160278
1.85641
5.83275
5.77485
4.11251
2.45142
1.44785
0.846432
0.49942
0.302257
0.189245
0.122804
0.0825028
0.0573017
0.0411146
0.0304867
0.0234021
0.01866
0.0155359
0.0135885
0.0125448
0.0122255
0.0124597
0.0131903
0.0142305
2.41455
6.53605
5.72372
3.5398
2.03913
1.15496
0.654755
0.380365
0.229488
0.144226
0.0942414
0.0638508
0.0447671
0.0324532
0.0243343
0.0189052
0.0152675
0.0128783
0.011408
0.0106534
0.0104812
0.0107528
0.011452
0.0123888
3.40442
6.76007
5.3847
3.09233
1.69723
0.915143
0.503931
0.290034
0.175285
0.11085
0.0730058
0.0498927
0.0353059
0.0258466
0.0195791
0.0153683
0.0125347
0.0106681
0.00952047
0.00894061
0.00883018
0.00908745
0.00971037
0.0105405
5.00191
6.82395
5.00629
2.64115
1.34441
0.698053
0.381403
0.220687
0.134535
0.085829
0.0570045
0.0392826
0.0280338
0.020701
0.0158175
0.0125178
0.0102819
0.00879494
0.00786791
0.00738753
0.00728269
0.00748802
0.00800667
0.0087303
7.45835
7.29172
4.47346
2.12477
1.03192
0.529364
0.29028
0.169325
0.10412
0.0669739
0.0448287
0.0311243
0.0223753
0.0166416
0.0128023
0.0101913
0.00840518
0.00719846
0.00642348
0.00599323
0.00585645
0.00597914
0.00637046
0.00698503
9.60415
7.60101
3.5343
1.61313
0.771311
0.397739
0.220815
0.130414
0.0810427
0.0525887
0.0354656
0.0247891
0.0179303
0.0134101
0.0103661
0.00828101
0.00683842
0.00584322
0.00517627
0.00476672
0.00457408
0.00458503
0.00481967
0.00530974
12.2681
7.07054
2.81242
1.19706
0.5699
0.298963
0.168902
0.101134
0.0635151
0.0415613
0.0282216
0.0198397
0.0144203
0.0108278
0.00839398
0.00671396
0.00553718
0.0047061
0.00412129
0.00372022
0.00346376
0.00333692
0.00337807
0.00369126
2.39724
4.8191
7.07938
7.68934
7.98901
32.8979
0.973875
2.40405
3.81609
4.89074
5.67072
9.65693
0.25968
1.97948
3.10489
4.05232
4.59589
5.26925
0.27961
1.8773
2.80724
3.52039
3.68117
3.51288
1.24773
1.87091
2.63254
3.07542
2.96881
2.50398
1.39004
1.87472
2.50609
2.71532
2.43991
1.84221
1.50578
1.88197
2.40547
2.44408
2.03542
1.43095
1.59116
1.88594
2.32046
2.24662
1.73299
1.15734
1.64788
1.88213
2.24835
2.09231
1.51107
0.967929
1.67942
1.86799
2.18716
1.9693
1.34732
0.832828
1.69012
1.84323
2.13477
1.87415
1.22688
0.734357
1.68558
1.80909
2.08942
1.80609
1.1398
0.662055
1.66865
1.76674
2.05163
1.76421
1.0789
0.609646
1.62939
1.71652
2.02311
1.74761
1.04054
0.573108
1.56297
1.65851
2.00351
1.75235
1.02378
0.549672
1.4701
1.59186
1.99232
1.78087
1.02952
0.537992
1.35763
1.51414
1.98655
1.83238
1.06075
0.537908
1.23812
1.42108
1.98257
1.90633
1.12348
0.550641
1.18568
1.30581
1.97687
2.0013
1.22842
0.579638
0.269265
1.1738
1.96309
2.11595
1.39415
0.632953
0.251925
1.04348
1.92211
2.25194
1.65335
0.730344
0.228684
0.944343
1.83903
2.41415
2.06295
0.928885
0.851852
0.952726
1.75332
2.65235
2.69736
1.46044
1.95593
1.65846
2.16645
3.3616
3.62797
3.19769
14.9304
4.67268
1.81607
0.824653
0.415222
0.225314
0.129992
0.0789649
0.0501195
0.0330616
0.0225921
0.0159614
0.0116459
0.00876801
0.00680594
0.00544071
0.00447243
0.00377285
0.00325761
0.00286894
0.00256397
0.00231274
0.00212075
0.00212034
6.22413
2.64085
1.2204
0.596187
0.309991
0.171967
0.100965
0.0621612
0.0398529
0.0264889
0.0182055
0.0129192
0.00945683
0.00713471
0.00554218
0.00442608
0.00362626
0.00303861
0.00259301
0.00223921
0.00193728
0.00165436
0.00137032
0.000967387
3.59488
1.79194
0.867912
0.435342
0.232896
0.132403
0.079167
0.0493778
0.0319542
0.0213864
0.0147766
0.0105291
0.00773178
0.00584675
0.00454827
0.00363414
0.00297581
0.00248957
0.00211914
0.00182434
0.00157324
0.00133998
0.00110662
0.000794351
2.377
1.23183
0.617188
0.321764
0.177693
0.103355
0.0627938
0.0396102
0.0258446
0.0174049
0.0120842
0.00864452
0.00636875
0.00482961
0.00376634
0.00301615
0.00247515
0.00207555
0.00177175
0.00153083
0.00132567
0.00113457
0.000947469
0.00071398
1.61319
0.863497
0.45042
0.243416
0.138069
0.0818386
0.0503891
0.0320922
0.0210889
0.01428
0.00995807
0.00714988
0.00528486
0.00402001
0.0031445
0.00252596
0.00207958
0.00174981
0.00149915
0.00130028
0.00113045
0.000972639
0.000822539
0.000647418
1.15857
0.631021
0.339402
0.18857
0.10922
0.0657252
0.0409123
0.0262659
0.0173642
0.0118128
0.00826886
0.00595655
0.00441626
0.00336948
0.00264393
0.00213092
0.00176052
0.00148681
0.00127877
0.00111373
0.000972882
0.000843249
0.00072384
0.00059215
0.872568
0.479398
0.263477
0.149405
0.0879205
0.0535343
0.0336143
0.0217199
0.0144288
0.00985305
0.00691853
0.00499762
0.00371524
0.00284258
0.00223732
0.00180929
0.00150031
0.00127213
0.0010989
0.000961802
0.000845372
0.000739792
0.000645644
0.000546792
0.685807
0.377612
0.210317
0.120929
0.0719831
0.0442181
0.0279491
0.0181487
0.0121012
0.0082874
0.00583303
0.00422273
0.00314631
0.00241344
0.00190526
0.00154618
0.00128733
0.00109656
0.000952203
0.000838535
0.000742805
0.000657522
0.000583814
0.000509831
0.559175
0.30705
0.17217
0.0998544
0.0599037
0.0370293
0.0235172
0.015325
0.010245
0.00703003
0.00495619
0.00359379
0.00268274
0.00206277
0.00163344
0.0013307
0.00111309
0.000953345
0.000833125
0.000739174
0.000660912
0.000592518
0.000535106
0.000479887
0.470397
0.256711
0.144189
0.0840061
0.0506402
0.0314319
0.020025
0.0130786
0.00875686
0.00601558
0.00424508
0.0030816
0.00230405
0.00177576
0.00141084
0.00115443
0.000970965
0.000837079
0.000737086
0.000659698
0.000596042
0.000541484
0.000496873
0.000455735
0.406619
0.219981
0.123294
0.0719251
0.0434625
0.0270383
0.0172552
0.0112819
0.00755839
0.00519401
0.00366659
0.00266352
0.00199427
0.00154077
0.00122871
0.00101055
0.00085546
0.000743173
0.000660114
0.000596554
0.000544985
0.000501609
0.000466952
0.000436343
0.360048
0.192725
0.107471
0.0626128
0.0378526
0.0235661
0.0150464
0.00983841
0.00658968
0.0045267
0.00319496
0.0023218
0.00174074
0.00134848
0.00107995
0.000893465
0.00076198
0.00066772
0.000598781
0.000546685
0.000505014
0.000470583
0.000443619
0.000420871
0.325768
0.172265
0.095376
0.0553739
0.0334384
0.0208074
0.0132776
0.00867491
0.00580472
0.00398369
0.00281001
0.00204237
0.00153332
0.00119134
0.000958718
0.000798488
0.000686639
0.000607383
0.000550157
0.000507494
0.000473865
0.000446541
0.00042552
0.000408643
0.300677
0.156838
0.0860951
0.0497164
0.02995
0.0186086
0.0118579
0.00773568
0.00516806
0.00354166
0.00249585
0.00181403
0.00136386
0.00106318
0.000860196
0.000721717
0.000626165
0.000559346
0.000511776
0.000476824
0.000449693
0.000428007
0.000411594
0.000399106
0.282774
0.145285
0.0789659
0.0452878
0.0271901
0.0168555
0.0107189
0.00697816
0.00465232
0.00318236
0.0022399
0.00162782
0.00122573
0.000958951
0.000780393
0.000659894
0.000577821
0.000521255
0.000481597
0.000452913
0.000431022
0.000413819
0.000401006
0.000391801
0.270798
0.136806
0.0735284
0.0418346
0.025014
0.0154632
0.00980903
0.00636988
0.00423633
0.00289151
0.00203221
0.00147655
0.00111358
0.000874509
0.000716014
0.00061032
0.000539337
0.000491174
0.000457955
0.000434344
0.000416677
0.000403064
0.000393093
0.000386337
0.264027
0.130852
0.0694552
0.0391752
0.0233158
0.0143688
0.00908953
0.00588617
0.00390383
0.00265802
0.00186493
0.00135449
0.00102306
0.000806477
0.000664343
0.000570759
0.000508847
0.000467523
0.000439513
0.000419986
0.000405721
0.000395009
0.000387318
0.000382384
0.262203
0.127061
0.0665092
0.0371823
0.0220189
0.0135262
0.0085318
0.00550853
0.00364241
0.00247331
0.00173194
0.00125711
0.000950722
0.000752121
0.000623162
0.000539378
0.000484815
0.00044902
0.000425198
0.000408938
0.000397393
0.000389025
0.000383207
0.000379638
0.265572
0.125212
0.0645189
0.0357659
0.0210693
0.0129032
0.0081153
0.00522338
0.00344286
0.00233091
0.00162855
0.00118091
0.000893855
0.000709284
0.000590701
0.000514697
0.000465997
0.000434622
0.000414147
0.000400485
0.000391082
0.000384565
0.000380313
0.000377762
0.275065
0.125202
0.063379
0.0348494
0.0204322
0.0124786
0.00782614
0.00502122
0.0032985
0.00222606
0.00155128
0.00112327
0.000850428
0.000676346
0.000565633
0.000495602
0.000451453
0.000423543
0.000405716
0.000394129
0.000386433
0.000381338
0.000378225
0.000376471
0.292652
0.126778
0.0630076
0.034394
0.0200901
0.0122411
0.00765611
0.00489595
0.00320488
0.00215548
0.00149769
0.00108231
0.000818986
0.000652148
0.000547015
0.000481318
0.000440536
0.000415231
0.000399429
0.000389457
0.000383101
0.000379113
0.00037683
0.000375684
0.321946
0.130026
0.0633101
0.0343874
0.0200429
0.0121883
0.00760176
0.00484427
0.00315933
0.00211716
0.00146619
0.0010568
0.000798526
0.000635879
0.00053418
0.000471284
0.00043277
0.00040928
0.000394925
0.00038613
0.000380769
0.000377617
0.000376003
0.000375264
0.368195
0.134337
0.0642553
0.0348547
0.0203031
0.0123162
0.00765528
0.0048624
0.00316052
0.00211025
0.00145598
0.00104601
0.000788429
0.000627016
0.000526672
0.0004651
0.000427802
0.000405382
0.000391938
0.000383916
0.000379224
0.0003767
0.000375524
0.000375074
0.423302
0.138602
0.0659587
0.0358798
0.0209094
0.0126552
0.00783974
0.00495886
0.00320805
0.00213224
0.0014655
0.00104926
0.000788457
0.000625337
0.000524277
0.000462561
0.000425436
0.000403355
0.000390302
0.000382671
0.000378362
0.000376215
0.000375291
0.000375009
)
;

boundaryField
{
    rotor
    {
        type            epsilonWallFunction;
        value           nonuniform List<scalar> 
144
(
2.59153
3.82608
5.66858
5.15809
4.21783
3.36002
2.59153
1.01182
0.273151
1.35662
1.78108
2.16237
2.48556
2.74705
2.94832
3.09294
3.18476
3.2267
3.22525
3.20885
3.16979
3.10016
2.99181
2.83556
2.62015
2.33145
1.95655
1.49311
1.09711
3.00584
3.00584
3.88995
5.33821
5.9535
6.14767
6.19935
2.60007
3.63758
4.36042
4.19923
3.40453
3.05138
2.60007
1.03247
0.269289
1.29695
1.68037
1.99693
2.25528
2.46416
2.62981
2.75685
2.84996
2.91096
2.92253
2.88728
2.79909
2.65851
2.46701
2.2278
1.94216
1.61428
1.25448
0.264694
1.01294
2.44144
2.44144
3.31209
4.40877
5.61016
6.23468
6.16046
1.88002
3.00152
6.0362
6.82979
6.6226
6.23204
1.88002
0.82136
0.232687
0.260554
0.280659
1.2796
1.39877
1.49287
1.55929
1.59887
1.61095
1.60192
1.5739
1.53551
1.48489
1.42052
1.33947
1.21887
0.277598
0.267025
0.251443
0.230478
0.869964
2.1887
2.1887
2.11605
1.92155
1.74082
1.45573
1.5505
2.39724
4.8191
7.07938
7.68934
7.98901
32.8979
2.39724
0.973875
0.25968
0.27961
1.24773
1.39004
1.50578
1.59116
1.64788
1.67942
1.69012
1.68558
1.66865
1.62939
1.56297
1.4701
1.35763
1.23812
1.18568
0.269265
0.251925
0.228684
0.851852
1.95593
1.95593
1.65846
2.16645
3.3616
3.62797
3.19769
)
;
    }
    freestream
    {
        type            inletOutlet;
        inletValue      uniform 0.000375;
        value           nonuniform List<scalar> 
96
(
0.000375
0.000375
0.000375
0.000375
0.000375
0.000375
0.000375
0.000375
0.000375
0.000375
0.000375
0.000375
0.000375
0.000375
0.000375
0.000375
0.000375
0.000375
0.000375
0.000375
0.000375
0.000375
0.000375
0.00367
0.00730314
0.0116549
0.0166831
0.0225123
0.0292611
0.0370575
0.046059
0.0564714
0.0686429
0.0829349
0.0998726
0.120141
0.144883
0.175655
0.2146
0.264717
0.331125
0.424918
0.567322
0.775884
1.02447
1.17534
1.17815
1.04815
0.962683
0.98102
1.15734
1.3647
1.41205
1.24778
0.723635
0.244797
0.0960259
0.0503308
0.0339898
0.0269493
0.0233294
0.0210849
0.0194736
0.0177859
0.0160278
0.0142305
0.0123888
0.0105405
0.0087303
0.00698503
0.00530974
0.00369126
0.00212034
0.000375
0.000375
0.000375
0.000375
0.000375
0.000375
0.000375
0.000375
0.000375
0.000375
0.000375
0.000375
0.000375
0.000375
0.000375
0.000375
0.000375
0.000375
0.000375
0.000375
0.000375
0.000375
0.000375
)
;
    }
    frontAndBack
    {
        type            empty;
    }
}


// ************************************************************************* //
