/*--------------------------------*- C++ -*----------------------------------*\
  =========                 |
  \\      /  F ield         | OpenFOAM: The Open Source CFD Toolbox
   \\    /   O peration     | Website:  https://openfoam.org
    \\  /    A nd           | Version:  11
     \\/     M anipulation  |
\*---------------------------------------------------------------------------*/
FoamFile
{
    format      ascii;
    class       volScalarField;
    location    "2";
    object      k;
}
// * * * * * * * * * * * * * * * * * * * * * * * * * * * * * * * * * * * * * //

dimensions      [0 2 -2 0 0 0 0];

internalField   nonuniform List<scalar> 
2880
(
0.00554538
0.0157937
0.0384702
0.0521607
0.0594988
0.0630728
0.0194445
0.033098
0.0545717
0.0654406
0.0698554
0.0705554
0.0242181
0.0495078
0.0677936
0.0754724
0.077441
0.0753281
0.0272638
0.0611525
0.0769815
0.082662
0.0832815
0.0794906
0.0326906
0.0694341
0.0840236
0.0886953
0.0884986
0.0837872
0.0372043
0.0756668
0.0898259
0.0941932
0.0935778
0.0884045
0.0408252
0.0805117
0.094875
0.0994215
0.0987785
0.0934287
0.0436414
0.084346
0.0994213
0.10456
0.104233
0.0989396
0.0457488
0.0874078
0.103591
0.109727
0.110019
0.105021
0.0472339
0.0898441
0.107426
0.114984
0.116202
0.111762
0.048165
0.0917418
0.11096
0.120309
0.122827
0.119248
0.0485876
0.0931247
0.11418
0.125641
0.129912
0.127557
0.048573
0.0939375
0.117046
0.130882
0.137422
0.136742
0.0484086
0.094035
0.119468
0.135916
0.145235
0.146805
0.0480156
0.0933549
0.121264
0.14056
0.153151
0.157663
0.0473109
0.091783
0.122179
0.144503
0.160864
0.169164
0.0462035
0.089161
0.121956
0.147316
0.167883
0.180966
0.044582
0.085304
0.120175
0.148426
0.173483
0.192401
0.0422962
0.080045
0.116415
0.147421
0.176662
0.202547
0.039131
0.0732534
0.110339
0.143322
0.176164
0.210098
0.0348164
0.0648431
0.101587
0.135241
0.170692
0.213168
0.0290763
0.0546551
0.089585
0.122073
0.157075
0.209702
0.0210969
0.0415246
0.0725215
0.101443
0.13198
0.190832
0.00643837
0.016128
0.0363928
0.0604633
0.0870312
0.118085
0.0646124
0.052388
0.0430081
0.0351654
0.028688
0.0233702
0.0190418
0.0155482
0.0127485
0.010519
0.00875497
0.00737123
0.00630027
0.00548858
0.00489213
0.00447135
0.00418795
0.00400542
0.00389223
0.00382437
0.00378521
0.00376438
0.00375455
0.00375062
0.0660799
0.054324
0.0444313
0.0362023
0.0294441
0.0239293
0.0194615
0.0158672
0.0129934
0.0107085
0.00890257
0.0074865
0.00638975
0.00555673
0.00494224
0.00450645
0.00421128
0.00402029
0.00390155
0.00383021
0.00378889
0.00376653
0.0037557
0.00375101
0.0686089
0.0567401
0.046231
0.03752
0.0304172
0.0246625
0.0200242
0.0163057
0.0133391
0.0109835
0.00912285
0.00766347
0.0065313
0.00566824
0.00502773
0.00456961
0.00425615
0.0040512
0.0039225
0.00384432
0.0037982
0.00377205
0.00375861
0.00375219
0.0717254
0.0594853
0.0483284
0.0390857
0.0315957
0.0255673
0.0207317
0.0168669
0.0137893
0.0113479
0.00941971
0.00790594
0.00672863
0.00582685
0.00515232
0.00466438
0.00432572
0.00410074
0.00395707
0.00386805
0.00381399
0.00378189
0.00376401
0.00375478
0.0752935
0.0625277
0.0506961
0.0408876
0.0329779
0.0266464
0.0215885
0.0175561
0.0143496
0.0118071
0.00979823
0.00821875
0.00698644
0.00603717
0.00532057
0.0047952
0.00442413
0.00417253
0.00400823
0.0039038
0.00383817
0.00379733
0.00377321
0.00375957
0.0793043
0.0659055
0.0533564
0.0429408
0.0345749
0.0279093
0.0226028
0.0183811
0.0150271
0.0123677
0.0102647
0.00860784
0.00731037
0.00630465
0.00553784
0.00496735
0.00455643
0.00427117
0.00407995
0.00395485
0.00387343
0.0038205
0.00378731
0.0037674
0.0838143
0.0696983
0.0563645
0.0452812
0.0364104
0.0293723
0.0237872
0.0193522
0.0158309
0.0130381
0.0108267
0.00908025
0.00770709
0.00663571
0.00581044
0.00518712
0.00472882
0.00440251
0.00417745
0.00402559
0.00392323
0.00385372
0.00380757
0.0037789
0.0889075
0.0740088
0.059799
0.0479623
0.0385191
0.031059
0.0251589
0.0204827
0.0167724
0.0138281
0.0114933
0.00964438
0.00818451
0.00703798
0.0061459
0.00546206
0.00494887
0.00457389
0.00430738
0.00412153
0.00399158
0.00389979
0.00383671
0.00379581
0.0946937
0.0789606
0.0637596
0.0510535
0.0409471
0.033
0.0267394
0.0217891
0.0178647
0.0147493
0.0122748
0.0103099
0.00875188
0.00752038
0.00655298
0.00580093
0.00522538
0.00479394
0.00447778
0.00424965
0.00408425
0.00396333
0.00387799
0.00382018
0.101302
0.0846999
0.0683691
0.054643
0.043753
0.0352344
0.0285555
0.0232911
0.0191236
0.0158148
0.0131831
0.0110879
0.00941956
0.00809288
0.00704138
0.0062133
0.0055679
0.0050722
0.0046979
0.00441844
0.00420849
0.00404997
0.00393518
0.0038539
0.108879
0.0913981
0.0737775
0.0588414
0.0470116
0.0378112
0.0306403
0.0250122
0.020567
0.0170397
0.0142313
0.0119901
0.0101988
0.00876621
0.00762145
0.00670929
0.00598651
0.00541886
0.00497794
0.0046377
0.00437298
0.0041665
0.00401279
0.00389917
0.117581
0.0992531
0.0801679
0.0637882
0.0508179
0.0407926
0.0330347
0.0269807
0.0222159
0.0184404
0.0154336
0.0130295
0.0111015
0.00955169
0.00830409
0.00729952
0.00649175
0.00584458
0.00532879
0.00491822
0.0045877
0.00432108
0.00411646
0.00395862
0.127563
0.108488
0.0877605
0.0696583
0.0552937
0.0442581
0.0357904
0.029231
0.0240945
0.0200355
0.0168051
0.0142194
0.01214
0.010461
0.00910052
0.00799491
0.00709442
0.00636028
0.00576162
0.00527136
0.00486359
0.00452317
0.00425294
0.00403533
0.138959
0.119343
0.0968127
0.0766683
0.0605944
0.0483102
0.0389729
0.0318056
0.0262319
0.0218462
0.0183624
0.0155737
0.0133267
0.0115058
0.010022
0.0088065
0.00780544
0.00697689
0.00628757
0.00570851
0.00521203
0.00478312
0.00443003
0.00413284
0.151848
0.132064
0.107609
0.0850776
0.066916
0.0530808
0.0426666
0.0347586
0.0286633
0.0238968
0.0201238
0.0171071
0.0146745
0.0126978
0.0110797
0.00974515
0.00863555
0.00770514
0.00691751
0.00624079
0.00564422
0.00511155
0.00465612
0.00425496
0.166136
0.146885
0.120433
0.0951773
0.0744971
0.0587379
0.0469807
0.0381588
0.0314331
0.0262169
0.0221099
0.0188353
0.0161961
0.0140484
0.0122843
0.0108213
0.00959507
0.00855539
0.00766187
0.00687877
0.0061709
0.00551883
0.00493967
0.00440532
0.181657
0.163861
0.13549
0.107256
0.0836115
0.0654898
0.0520557
0.0420963
0.0345982
0.0288433
0.0243458
0.0207762
0.0179055
0.0155692
0.0136463
0.0120448
0.0106938
0.00953744
0.00853059
0.00763257
0.0068023
0.00601485
0.00528868
0.0045866
0.198278
0.182604
0.15281
0.121535
0.0945408
0.0735815
0.0580682
0.0466874
0.038233
0.0318236
0.0268627
0.0229516
0.0198185
0.0172728
0.0151762
0.0134254
0.011941
0.0106607
0.00953324
0.00851207
0.00754853
0.00660946
0.00571079
0.00479979
0.215335
0.202399
0.172218
0.138079
0.107517
0.0832748
0.065231
0.0520806
0.0424348
0.0352207
0.0297019
0.0253891
0.0219549
0.019174
0.0168863
0.0149738
0.0133468
0.0119348
0.0106797
0.00952755
0.00842049
0.00731367
0.00621439
0.0050436
0.231669
0.222049
0.193098
0.156645
0.122619
0.0947964
0.0737775
0.0584579
0.0473292
0.0391178
0.0329183
0.0281263
0.0243414
0.0212932
0.018793
0.0167042
0.0149242
0.0133725
0.0119826
0.010692
0.00943209
0.00814232
0.00681166
0.00531526
0.24555
0.239857
0.2141
0.176491
0.139617
0.108241
0.0839202
0.0660236
0.053072
0.0436233
0.0365859
0.0312144
0.0270153
0.0236593
0.0209208
0.018639
0.0166948
0.0149954
0.0134641
0.0120283
0.0106074
0.00912167
0.00752689
0.0056145
0.254116
0.253265
0.233034
0.19626
0.157819
0.123434
0.0957678
0.0749719
0.0598418
0.0488729
0.0408014
0.0347225
0.0300282
0.0263142
0.023307
0.0208149
0.0186977
0.0168469
0.0151728
0.0135905
0.0120064
0.0103181
0.00842725
0.00597056
0.25052
0.259021
0.246255
0.21431
0.176064
0.139811
0.109211
0.0854205
0.0678141
0.0550237
0.0456857
0.0387404
0.0334488
0.0293149
0.0260048
0.0232879
0.0209979
0.019008
0.0172131
0.015515
0.0138066
0.0119598
0.00979587
0.00674815
0.211561
0.251467
0.248584
0.227875
0.192651
0.156364
0.123818
0.097319
0.0771109
0.0622342
0.0513781
0.0433768
0.0373609
0.0327292
0.0290755
0.0261222
0.0236738
0.0215861
0.0197462
0.018058
0.0164339
0.0148202
0.0133631
0.0127813
0.00556678
0.0150818
0.029726
0.0426677
0.0482638
0.05758
0.0198386
0.0379445
0.0573302
0.0696572
0.0736751
0.083123
0.0238692
0.0494348
0.0716068
0.0839397
0.0889711
0.0966557
0.0264433
0.0582725
0.0816844
0.0942784
0.100395
0.108364
0.0314179
0.0657951
0.0897178
0.102731
0.110102
0.118768
0.0352488
0.0722738
0.0963687
0.109924
0.118586
0.128054
0.0382291
0.0777668
0.101886
0.116069
0.125978
0.136349
0.0405562
0.0822912
0.106368
0.121219
0.132274
0.143516
0.0423546
0.0858678
0.109875
0.12539
0.137446
0.14944
0.0437074
0.0885221
0.112459
0.128601
0.14149
0.154067
0.0446845
0.0902795
0.114171
0.130884
0.144435
0.157414
0.0453188
0.091163
0.115056
0.132286
0.146346
0.159552
0.045438
0.0912341
0.115141
0.132834
0.147308
0.160593
0.0450705
0.0905569
0.114489
0.132643
0.147413
0.160687
0.0441467
0.0891271
0.113089
0.131714
0.146801
0.160011
0.0426548
0.086925
0.110913
0.130056
0.145519
0.158687
0.0405807
0.0838982
0.107891
0.12763
0.143607
0.156831
0.037914
0.0799515
0.103891
0.124328
0.141046
0.154518
0.0346013
0.0749476
0.0987004
0.11994
0.137725
0.151776
0.0305909
0.0686613
0.0919765
0.114101
0.133374
0.148524
0.025861
0.0607009
0.0831815
0.106187
0.127461
0.144477
0.0234562
0.0503119
0.0713954
0.0951189
0.118971
0.138876
0.019456
0.0361918
0.0545146
0.0788592
0.105811
0.129434
0.00522261
0.0136941
0.0299933
0.0569605
0.0883794
0.116805
0.157743
0.226528
0.242864
0.232667
0.205945
0.171848
0.138848
0.110384
0.0877372
0.0706288
0.058021
0.0487529
0.0418567
0.0366251
0.0325696
0.0293583
0.0267654
0.0246372
0.0228724
0.0214095
0.0202177
0.0193218
0.0189361
0.0195112
0.12238
0.194774
0.228331
0.229092
0.214605
0.185013
0.153342
0.124078
0.099518
0.080246
0.065732
0.0549893
0.047031
0.0410647
0.0365181
0.0329987
0.0302472
0.0281008
0.0264698
0.0253171
0.0246354
0.0244536
0.0248784
0.0260001
0.118827
0.175564
0.20883
0.220507
0.214186
0.194465
0.166183
0.137629
0.112059
0.0909834
0.0745654
0.06219
0.0529797
0.0461144
0.0409536
0.0370447
0.0340914
0.0319167
0.0304297
0.02959
0.0293718
0.0297296
0.0306996
0.0321217
0.12978
0.172865
0.194646
0.209007
0.210021
0.199483
0.176588
0.150199
0.12477
0.102556
0.0844638
0.0704126
0.0597909
0.0518488
0.0459212
0.0415084
0.0382768
0.0360272
0.0346511
0.0340821
0.0342337
0.0349998
0.0363642
0.0379793
0.141691
0.175769
0.192616
0.199167
0.202294
0.198027
0.183437
0.160767
0.136835
0.114447
0.0951959
0.0796186
0.0675182
0.0583433
0.0514812
0.0464192
0.0427952
0.0403824
0.0390421
0.0386669
0.0390743
0.0401738
0.0418264
0.0435964
0.149637
0.181788
0.197309
0.196772
0.195658
0.194058
0.18588
0.168522
0.147396
0.125965
0.106333
0.089623
0.0761376
0.0656491
0.0577004
0.0518257
0.0476598
0.0449534
0.0435324
0.0432426
0.0438037
0.045143
0.0470202
0.0489263
0.156046
0.187189
0.206396
0.201429
0.193966
0.18981
0.184575
0.172757
0.155528
0.136239
0.117217
0.100033
0.0854832
0.0737462
0.0646256
0.0577858
0.0529068
0.0497392
0.0480824
0.0477404
0.0483467
0.0498202
0.0518647
0.0538935
0.161784
0.190704
0.214095
0.21183
0.198319
0.188562
0.18241
0.173722
0.160709
0.144482
0.127081
0.110265
0.0952061
0.082487
0.0722398
0.0643425
0.058587
0.0547676
0.0526853
0.0521198
0.0526513
0.0541297
0.0562765
0.0584109
0.166839
0.193183
0.218525
0.221882
0.210095
0.19178
0.181823
0.173401
0.163244
0.150217
0.135182
0.119598
0.104761
0.0915454
0.0804046
0.0714804
0.064743
0.0600891
0.057368
0.0563703
0.0566937
0.0580133
0.0601769
0.0623877
0.170979
0.195097
0.220145
0.230256
0.223536
0.202176
0.184547
0.17377
0.164249
0.153614
0.141107
0.127383
0.113502
0.100423
0.0888178
0.0790728
0.0713689
0.0657569
0.0621907
0.0605189
0.0604833
0.0614459
0.0635003
0.0657451
0.174015
0.196446
0.220346
0.23542
0.233895
0.218368
0.193533
0.176889
0.165461
0.155538
0.144976
0.133269
0.120868
0.108548
0.097024
0.0868394
0.0783537
0.0717857
0.0672361
0.0646792
0.0639607
0.0645202
0.0662067
0.0684197
0.175869
0.197052
0.219732
0.237443
0.241373
0.232767
0.209374
0.185693
0.169471
0.157827
0.147732
0.137462
0.126592
0.115454
0.104541
0.0943893
0.0854612
0.078104
0.0725584
0.0689483
0.0672531
0.0672672
0.0683343
0.0704036
0.176534
0.196756
0.218389
0.237213
0.246244
0.242932
0.226628
0.200969
0.1791
0.163173
0.151263
0.141043
0.131096
0.120995
0.110989
0.101332
0.0923822
0.0845476
0.0781604
0.0734703
0.0706232
0.0696552
0.0701232
0.0717145
0.176227
0.195505
0.216234
0.235498
0.248216
0.249725
0.240998
0.219242
0.19483
0.17425
0.158482
0.146215
0.135764
0.126011
0.116544
0.107434
0.0988006
0.0908614
0.0839401
0.0783317
0.0742896
0.0720166
0.0716764
0.0725559
0.175044
0.19333
0.213173
0.232512
0.24753
0.253984
0.250655
0.236616
0.214281
0.191608
0.171937
0.156054
0.143194
0.132248
0.122452
0.11339
0.104892
0.0969802
0.0897965
0.0835506
0.0784821
0.0748656
0.0730925
0.0732875
0.173157
0.190333
0.20918
0.228294
0.244739
0.25506
0.256652
0.249901
0.233508
0.212716
0.191708
0.172712
0.156479
0.142809
0.131167
0.121006
0.111911
0.103641
0.0961109
0.0893525
0.0834744
0.078658
0.0752742
0.0743119
0.170737
0.186662
0.204317
0.222856
0.24
0.252935
0.259204
0.257828
0.24895
0.233194
0.214417
0.19502
0.17665
0.160151
0.145746
0.133275
0.122418
0.112856
0.104351
0.0967548
0.0900072
0.0841155
0.0792171
0.0765976
0.167941
0.182487
0.198731
0.216298
0.233426
0.247865
0.257437
0.260827
0.25789
0.248762
0.234722
0.218074
0.200429
0.183063
0.166808
0.152068
0.138927
0.127293
0.117002
0.107881
0.0997872
0.0926088
0.0862446
0.0816493
0.164885
0.17799
0.192645
0.208862
0.225273
0.240074
0.251545
0.258253
0.259761
0.256266
0.247858
0.235744
0.221355
0.205811
0.190066
0.17481
0.16047
0.147256
0.135236
0.124381
0.114625
0.105863
0.0979923
0.0913599
0.161658
0.173335
0.186339
0.200952
0.216067
0.230229
0.242059
0.250453
0.254678
0.254839
0.251094
0.243599
0.233407
0.221362
0.208214
0.194637
0.181155
0.168119
0.155762
0.144202
0.133491
0.123602
0.114628
0.106575
0.158318
0.168635
0.180094
0.193061
0.206585
0.219413
0.230429
0.238806
0.243896
0.245831
0.244626
0.240472
0.233745
0.225133
0.215218
0.2045
0.193422
0.182334
0.171458
0.160974
0.151007
0.141564
0.132783
0.124913
0.154796
0.16396
0.174126
0.185652
0.197659
0.208966
0.218584
0.225849
0.230312
0.232205
0.231715
0.228877
0.224084
0.21777
0.210332
0.202121
0.193433
0.184534
0.175689
0.167084
0.158891
0.151321
0.144659
0.13931
0.150719
0.159322
0.168532
0.179008
0.189894
0.200008
0.208375
0.214327
0.217473
0.218491
0.217375
0.214349
0.209841
0.204239
0.197888
0.191082
0.18407
0.177061
0.170228
0.163699
0.157575
0.151955
0.147133
0.143609
0.146061
0.154642
0.163296
0.173165
0.18347
0.193026
0.200827
0.205986
0.208394
0.20884
0.207107
0.203581
0.198738
0.192994
0.186712
0.180188
0.17366
0.167318
0.161316
0.155791
0.150872
0.146701
0.143449
0.141205
0.00403655
0.0124651
0.0412084
0.0694317
0.0939206
0.117795
0.0158177
0.0256666
0.0577792
0.082146
0.102795
0.121024
0.0206661
0.0382308
0.0694209
0.0902977
0.107467
0.121294
0.0231895
0.0469212
0.076115
0.0946138
0.109205
0.12034
0.0249691
0.0529747
0.07995
0.096666
0.109324
0.118626
0.0262397
0.057229
0.0819342
0.0972424
0.10849
0.116432
0.0278815
0.0599309
0.0826575
0.0968569
0.106882
0.113841
0.0291197
0.0614816
0.08251
0.0956371
0.104708
0.1109
0.0299769
0.0621313
0.0816504
0.0938166
0.102061
0.107642
0.0304812
0.0620818
0.0802627
0.0915137
0.0990144
0.104103
0.0306337
0.0614364
0.0784505
0.0888149
0.0956302
0.100332
0.0305178
0.060296
0.0762805
0.0857855
0.0919646
0.0963934
0.0301594
0.0586927
0.0737913
0.0824738
0.0880697
0.0923659
0.0296655
0.0566492
0.0710061
0.0789146
0.0839943
0.0883425
0.0290085
0.0541943
0.0679294
0.0751319
0.0797806
0.084422
0.0281627
0.0513157
0.0645515
0.0711413
0.0754613
0.0806946
0.0270798
0.0479585
0.0608582
0.0669531
0.071058
0.0772822
0.0254272
0.0440907
0.0568602
0.062574
0.0665816
0.0742976
0.0246547
0.0401725
0.0526353
0.0580013
0.0620434
0.0716459
0.023715
0.0366318
0.0482524
0.0531985
0.0573634
0.0689021
0.0223308
0.0332139
0.0435751
0.0480409
0.0523135
0.0652795
0.0204687
0.0293707
0.0380872
0.0421811
0.0462655
0.059855
0.0167478
0.0236286
0.0302336
0.0344856
0.0373658
0.0539059
0.00469541
0.00877971
0.0131031
0.0176747
0.0206097
0.0292194
0.141263
0.149967
0.158361
0.167999
0.178252
0.187946
0.196013
0.201586
0.204308
0.20493
0.203435
0.200028
0.195258
0.189596
0.183424
0.177049
0.170707
0.164579
0.158799
0.153477
0.148719
0.144647
0.141407
0.139064
0.137129
0.145428
0.153617
0.1632
0.173723
0.184008
0.192851
0.199368
0.202977
0.204245
0.203446
0.200857
0.196927
0.192038
0.186545
0.180771
0.17494
0.16922
0.163743
0.158604
0.153891
0.149715
0.146175
0.14336
0.133533
0.141113
0.148863
0.158297
0.169094
0.18004
0.189762
0.197252
0.201997
0.204126
0.204305
0.20276
0.200027
0.196522
0.192525
0.188223
0.183796
0.179369
0.175029
0.170836
0.166844
0.163106
0.159655
0.15659
0.130097
0.136863
0.143877
0.152837
0.163553
0.17471
0.184687
0.192372
0.197498
0.200321
0.201327
0.200833
0.199242
0.196726
0.193634
0.190236
0.186707
0.183172
0.179713
0.176387
0.173236
0.170274
0.167394
0.164458
0.126711
0.13254
0.138527
0.146561
0.156559
0.166922
0.175569
0.181465
0.184968
0.186736
0.187261
0.18694
0.186109
0.184816
0.183077
0.181109
0.179006
0.176817
0.174578
0.17232
0.170072
0.167872
0.165654
0.162956
0.123266
0.128118
0.132904
0.13968
0.148392
0.156825
0.161928
0.163007
0.161645
0.159408
0.157168
0.155319
0.153795
0.152485
0.151293
0.150176
0.149104
0.148039
0.146946
0.145783
0.144545
0.143213
0.141935
0.13987
0.119707
0.123691
0.127402
0.133131
0.140882
0.146437
0.146752
0.140425
0.132057
0.124262
0.118196
0.113806
0.110451
0.107771
0.10561
0.103859
0.102398
0.101119
0.0999216
0.0986839
0.0974281
0.0958156
0.0946011
0.0919671
0.116033
0.119445
0.122682
0.128865
0.137455
0.140676
0.135402
0.121188
0.107965
0.0989242
0.0931017
0.0882333
0.0835535
0.0789749
0.0746195
0.0705925
0.066965
0.063747
0.0608973
0.0583178
0.0560139
0.0537109
0.0519152
0.0494252
0.112275
0.115572
0.119323
0.127732
0.138092
0.13878
0.128167
0.108643
0.0954032
0.0880044
0.0827732
0.0777374
0.0724879
0.0671682
0.06201
0.0571939
0.0528344
0.048977
0.0456215
0.0427143
0.0402274
0.0380235
0.0363513
0.0349242
0.108489
0.112252
0.117918
0.13065
0.142166
0.138541
0.119574
0.0995821
0.0890709
0.0831901
0.0782291
0.073053
0.0674934
0.061822
0.0563349
0.0512519
0.0466846
0.0426774
0.0392434
0.0363744
0.0340756
0.0322617
0.0311689
0.0307398
0.104743
0.1097
0.119155
0.138109
0.145887
0.135938
0.109737
0.0935406
0.0864323
0.0813137
0.076317
0.0705837
0.0643941
0.0582756
0.052575
0.0474642
0.0429979
0.039174
0.035976
0.03338
0.031345
0.0300333
0.0296513
0.0298914
0.101139
0.10828
0.12405
0.14795
0.147116
0.127347
0.101494
0.0915408
0.0857655
0.0804572
0.0743861
0.0675492
0.0606507
0.0542168
0.0484875
0.0435371
0.0393616
0.0359281
0.0332042
0.0311693
0.0297906
0.0293025
0.0294313
0.0301226
0.0978193
0.108525
0.133165
0.153127
0.144696
0.115025
0.0985177
0.0913439
0.0856183
0.0790746
0.0715612
0.0638571
0.0566669
0.0502927
0.0448162
0.0402227
0.0364661
0.033502
0.0313031
0.029869
0.0292385
0.029274
0.0298322
0.0310755
0.0950308
0.111227
0.145155
0.153944
0.133879
0.107956
0.0980202
0.091608
0.084693
0.076541
0.0680503
0.0600875
0.0530149
0.0469417
0.0418526
0.037688
0.0343871
0.0319062
0.0302213
0.0293167
0.0291683
0.029565
0.0306235
0.0321453
0.0932109
0.117718
0.152405
0.147991
0.120914
0.10623
0.098448
0.0912083
0.0824208
0.0730573
0.0642174
0.0563556
0.049608
0.0439547
0.039317
0.0356089
0.0327612
0.0307284
0.0294815
0.0289938
0.0291564
0.029886
0.0312302
0.0327856
0.0926649
0.128014
0.153654
0.137215
0.116121
0.106564
0.0987502
0.0894057
0.079076
0.0691901
0.0603712
0.0528061
0.0464718
0.0412669
0.0370753
0.0337961
0.0313545
0.0297
0.028796
0.0286052
0.0289653
0.0299104
0.0313356
0.0328977
0.0934738
0.138233
0.1472
0.127739
0.11571
0.107409
0.0977074
0.0863166
0.0751549
0.0651489
0.0565885
0.0494436
0.0435723
0.038816
0.0350356
0.0321241
0.0300067
0.0286324
0.0279617
0.027953
0.0284437
0.0295075
0.0309669
0.0324951
0.0955384
0.142597
0.13833
0.124921
0.11805
0.107819
0.0952078
0.0824244
0.0709068
0.0610936
0.0529459
0.0462714
0.0408571
0.0365152
0.0330954
0.0304874
0.0286159
0.0274309
0.0268949
0.0269561
0.0275043
0.0285666
0.0299793
0.0314428
0.0977816
0.143047
0.134517
0.126868
0.119744
0.106225
0.0914286
0.0779674
0.0665524
0.0571403
0.0494718
0.0432654
0.0382739
0.0342965
0.0311788
0.0288091
0.027112
0.0260388
0.025555
0.0256169
0.0261357
0.0271235
0.0284453
0.0298317
0.0945658
0.139864
0.134216
0.131937
0.120616
0.102974
0.0868224
0.0732833
0.0622438
0.0533253
0.0461472
0.0403853
0.0357774
0.0321174
0.0292495
0.0270615
0.0254779
0.0244512
0.0239513
0.0239512
0.0243697
0.025227
0.0264219
0.0277238
0.0912469
0.138493
0.141154
0.135674
0.117871
0.0981061
0.0817335
0.0685641
0.058047
0.0496543
0.0429542
0.0376054
0.0333412
0.0299559
0.027294
0.0252432
0.0237271
0.0226984
0.0221302
0.0220045
0.022273
0.0229396
0.0239704
0.0251795
0.108301
0.14603
0.150978
0.137129
0.112761
0.0925077
0.0764774
0.0638911
0.0539728
0.0461204
0.0398823
0.0349159
0.0309591
0.0278109
0.0253194
0.0233725
0.021892
0.0208279
0.0201527
0.0198529
0.0199135
0.0203265
0.0211367
0.0222334
0.129882
0.161852
0.156448
0.13236
0.106447
0.0864746
0.0711691
0.0593199
0.0500476
0.0427351
0.0369374
0.0323231
0.0286409
0.0256986
0.0233496
0.0214834
0.0200194
0.0189022
0.0180979
0.0175895
0.0173714
0.0174599
0.0179405
0.0188714
0.153299
0.176908
0.158081
0.124404
0.0990406
0.0801843
0.0659019
0.0548914
0.0462906
0.0395109
0.0341319
0.0298429
0.0264082
0.0236471
0.0214204
0.0196207
0.0181654
0.0169923
0.0160562
0.0153253
0.01478
0.0144345
0.0144231
0.015023
0.00513629
0.0199468
0.0482082
0.0780228
0.113011
0.136356
0.018741
0.0454258
0.0810252
0.115741
0.149089
0.206722
0.0230557
0.0575478
0.0951595
0.12979
0.158472
0.192712
0.0248207
0.0650956
0.10201
0.132909
0.153245
0.167517
0.0257956
0.0702837
0.104874
0.13053
0.141647
0.144812
0.0277076
0.0735807
0.105464
0.125289
0.12948
0.127592
0.0292216
0.0757073
0.104899
0.119387
0.119271
0.114526
0.0303162
0.0770236
0.103599
0.113822
0.111298
0.104629
0.0310344
0.0776958
0.101909
0.109036
0.104889
0.0972342
0.0314318
0.0777918
0.100005
0.105032
0.0997459
0.0915903
0.0315681
0.077342
0.0979666
0.101671
0.0956475
0.0871874
0.0315152
0.0763653
0.0958231
0.0987824
0.0924134
0.0837077
0.0313087
0.0748577
0.0935915
0.0962779
0.089861
0.0809402
0.0308206
0.0728127
0.0912897
0.0940781
0.0878442
0.0787418
0.0299815
0.0702162
0.0888821
0.0920801
0.0862524
0.077013
0.0287854
0.0670337
0.0862784
0.0901568
0.0849847
0.0756797
0.0272999
0.063202
0.0833314
0.0881605
0.0839322
0.0746825
0.025656
0.0586297
0.0798213
0.0859048
0.0829531
0.0739675
0.0248746
0.0531907
0.0754216
0.0831466
0.0818325
0.0734737
0.0239196
0.0470961
0.0696435
0.0795623
0.0802085
0.0731045
0.0223701
0.0402629
0.0617235
0.0746378
0.0775024
0.0726326
0.0203029
0.0324317
0.0509099
0.0669529
0.0728193
0.0713372
0.0163927
0.0224668
0.035613
0.0536688
0.0642302
0.0665386
0.00419256
0.00687748
0.0147604
0.0340635
0.0512451
0.0601103
0.194083
0.183921
0.148373
0.114888
0.0912196
0.0738911
0.0607837
0.0506602
0.0427334
0.0364694
0.031486
0.0274985
0.0242902
0.0216933
0.0195772
0.0178389
0.0163961
0.0151815
0.0141377
0.0132123
0.0123532
0.0115236
0.0107819
0.0105482
0.209642
0.175332
0.13338
0.104041
0.0832042
0.0677474
0.0559095
0.0466798
0.0394057
0.0336304
0.0290176
0.0253117
0.0223154
0.0198745
0.017868
0.0161991
0.0147889
0.0135703
0.0124827
0.0114643
0.0104428
0.00933363
0.00805579
0.00619506
0.184351
0.151372
0.118218
0.0937299
0.0757477
0.062066
0.0514051
0.0429997
0.0363279
0.0310048
0.0267364
0.0232946
0.0205006
0.0182142
0.0163246
0.0147432
0.0133982
0.0122293
0.0111839
0.0102105
0.0092501
0.00823853
0.00711686
0.00559136
0.159099
0.131541
0.104899
0.084555
0.0690411
0.0569065
0.0472872
0.0396232
0.0334992
0.0285907
0.0246408
0.0214458
0.0188448
0.0167106
0.0149428
0.0134611
0.0122011
0.0111096
0.010141
0.0092501
0.00838385
0.00748651
0.00652675
0.00530855
0.136464
0.114481
0.0935313
0.0765908
0.0630979
0.0522657
0.0435504
0.036544
0.0309128
0.0263807
0.0227223
0.0197556
0.0173355
0.0153468
0.0136982
0.0123171
0.0111451
0.0101344
0.00924432
0.00843424
0.00765585
0.00686319
0.00604522
0.00506897
0.118487
0.101181
0.0842009
0.0697718
0.0578689
0.0481175
0.0401792
0.0337504
0.0285578
0.024364
0.0209694
0.0182111
0.0159576
0.0141044
0.0125682
0.0112827
0.0101947
0.00926111
0.00844504
0.00771019
0.00701369
0.0063194
0.00562937
0.00484989
0.105225
0.0908752
0.0765469
0.0639451
0.053288
0.0444284
0.0371527
0.0312267
0.0264212
0.0225285
0.0193707
0.0168007
0.014699
0.0129702
0.0115381
0.010342
0.00933327
0.00847269
0.00772716
0.00706427
0.00644653
0.00584603
0.00527144
0.0046543
0.0954412
0.0828273
0.0702438
0.0589674
0.0492856
0.04116
0.0344462
0.0289552
0.0244887
0.0208624
0.0179158
0.015515
0.0135509
0.0119359
0.0106
0.00948766
0.00855422
0.0077639
0.0070868
0.00649384
0.00595212
0.00543966
0.00496717
0.00448319
0.0880436
0.0764403
0.0650131
0.054708
0.0457939
0.0382722
0.0320339
0.0269173
0.0227466
0.0193548
0.0165957
0.0143465
0.0125069
0.0109961
0.00974976
0.00871643
0.00785514
0.007133
0.00652262
0.00599745
0.00552807
0.00509643
0.00471224
0.00433613
0.0823064
0.0712868
0.0606395
0.0510567
0.042751
0.035727
0.0298901
0.0250951
0.0211813
0.0179955
0.0154026
0.0132892
0.0115623
0.0101473
0.00898444
0.00802612
0.00723432
0.00657842
0.00603278
0.00557247
0.00517055
0.00481122
0.00450165
0.00421164
0.0777612
0.0670743
0.056962
0.0479232
0.0401026
0.0334892
0.0279909
0.0234713
0.0197803
0.016775
0.0143293
0.0123374
0.0107129
0.00938604
0.00830131
0.00741429
0.00668931
0.00609735
0.00561371
0.00521431
0.00487385
0.00457763
0.00432986
0.00410768
0.0741081
0.0636025
0.0538595
0.0452338
0.0378015
0.0315272
0.0263142
0.0220301
0.0185321
0.0156846
0.0133691
0.011486
0.00995432
0.0087087
0.00769708
0.00687766
0.00621652
0.00568555
0.00526027
0.00491685
0.00463109
0.00438877
0.00419137
0.00402204
0.0711513
0.0607303
0.0512394
0.0429284
0.0358075
0.0298132
0.0248403
0.0207573
0.0174258
0.0147161
0.0125155
0.0107297
0.00928215
0.00811122
0.00716776
0.00641202
0.00581122
0.0053375
0.0049661
0.00467303
0.0044349
0.00423781
0.004081
0.00395255
0.0687573
0.0583553
0.04903
0.0409576
0.0340864
0.0283232
0.0235519
0.01964
0.0164516
0.0138618
0.0117623
0.0100632
0.00869159
0.00758904
0.00670871
0.00601235
0.00546777
0.00504687
0.00472417
0.00447544
0.00427808
0.00411844
0.00399418
0.00389718
0.066832
0.0564002
0.0471748
0.0392813
0.0326098
0.0270366
0.0224341
0.0186668
0.0156009
0.0131146
0.0111035
0.0094811
0.00817762
0.00713716
0.00631471
0.00567304
0.00518002
0.00480689
0.00452733
0.00431692
0.00415394
0.00402511
0.00392689
0.00385399
0.065306
0.0548049
0.0456286
0.0378668
0.0313543
0.0259368
0.0214742
0.0178282
0.0148659
0.0124681
0.0105334
0.00897812
0.00773506
0.00675033
0.00598028
0.00538819
0.0049416
0.00461083
0.00436874
0.0041909
0.00405661
0.00395302
0.00387572
0.00382119
0.0641274
0.0535207
0.0443557
0.0366883
0.0303015
0.0250102
0.0206622
0.0171162
0.0142399
0.0119164
0.0100466
0.00854917
0.00735881
0.00642324
0.00569977
0.00515182
0.00474625
0.00445232
0.00424217
0.00409159
0.00398099
0.00389809
0.00383772
0.00379713
0.063259
0.0525077
0.0433282
0.0357264
0.029438
0.0242471
0.0199905
0.0165245
0.0137176
0.0114547
0.00963854
0.00818956
0.00704401
0.00615076
0.00546772
0.00495815
0.00458802
0.00432551
0.00414212
0.00401399
0.0039227
0.00385667
0.00381016
0.00378019
0.0626788
0.0517325
0.042526
0.0349687
0.0287554
0.0236411
0.0194538
0.0160484
0.0132948
0.011079
0.00930521
0.00789526
0.00678639
0.00592826
0.00527911
0.00480185
0.00446149
0.00422515
0.0040638
0.00395392
0.00387807
0.00382546
0.00379042
0.00376849
0.0623849
0.0511688
0.0419377
0.0344107
0.0282512
0.0231898
0.0190493
0.0156852
0.0129684
0.0107861
0.00904354
0.00766302
0.00658245
0.00575195
0.00512984
0.00467856
0.00436222
0.00414699
0.00400343
0.00390827
0.0038448
0.00380262
0.00377608
0.00376035
0.0623956
0.0508009
0.0415635
0.0340571
0.0279285
0.0228941
0.0187764
0.0154332
0.0127366
0.0105742
0.00885126
0.00749041
0.00642961
0.00561903
0.00501686
0.00458509
0.00428699
0.00408794
0.0039581
0.00387442
0.00382066
0.00378659
0.00376631
0.0037553
0.0627307
0.0506314
0.0414217
0.0339242
0.0277961
0.022758
0.018636
0.0152923
0.0125987
0.0104419
0.00872687
0.00737571
0.00632597
0.00552741
0.00493793
0.00451905
0.0042334
0.00404566
0.00392563
0.00385027
0.00380368
0.00377568
0.00376016
0.00375251
0.0633474
0.0507141
0.0415566
0.0340391
0.0278669
0.0227839
0.0186302
0.0152637
0.012555
0.0103887
0.00866942
0.00731779
0.00627025
0.00547563
0.00489139
0.00447867
0.00419961
0.00401837
0.00390435
0.00383437
0.00379253
0.00376865
0.00375659
0.00375117
0.064073
0.0512006
0.0420507
0.0344409
0.0281597
0.022987
0.0187637
0.0153454
0.0126003
0.0104116
0.00867779
0.00731642
0.00626203
0.00546305
0.00487645
0.00446302
0.00418462
0.00400503
0.00389327
0.00382573
0.0037863
0.00376498
0.0037548
0.00375066
)
;

boundaryField
{
    rotor
    {
        type            kqRWallFunction;
        value           nonuniform List<scalar> 
144
(
0.00554538
0.0157937
0.0384702
0.0521607
0.0594988
0.0630728
0.00554538
0.0194445
0.0242181
0.0272638
0.0326906
0.0372043
0.0408252
0.0436414
0.0457488
0.0472339
0.048165
0.0485876
0.048573
0.0484086
0.0480156
0.0473109
0.0462035
0.044582
0.0422962
0.039131
0.0348164
0.0290763
0.0210969
0.00643837
0.00643837
0.016128
0.0363928
0.0604633
0.0870312
0.118085
0.00556678
0.0150818
0.029726
0.0426677
0.0482638
0.05758
0.00556678
0.0198386
0.0238692
0.0264433
0.0314179
0.0352488
0.0382291
0.0405562
0.0423546
0.0437074
0.0446845
0.0453188
0.045438
0.0450705
0.0441467
0.0426548
0.0405807
0.037914
0.0346013
0.0305909
0.025861
0.0234562
0.019456
0.00522261
0.00522261
0.0136941
0.0299933
0.0569605
0.0883794
0.116805
0.00403655
0.0124651
0.0412084
0.0694317
0.0939206
0.117795
0.00403655
0.0158177
0.0206661
0.0231895
0.0249691
0.0262397
0.0278815
0.0291197
0.0299769
0.0304812
0.0306337
0.0305178
0.0301594
0.0296655
0.0290085
0.0281627
0.0270798
0.0254272
0.0246547
0.023715
0.0223308
0.0204687
0.0167478
0.00469541
0.00469541
0.00877971
0.0131031
0.0176747
0.0206097
0.0292194
0.00513629
0.0199468
0.0482082
0.0780228
0.113011
0.136356
0.00513629
0.018741