/*--------------------------------*- C++ -*----------------------------------*\
  =========                 |
  \\      /  F ield         | OpenFOAM: The Open Source CFD Toolbox
   \\    /   O peration     | Website:  https://openfoam.org
    \\  /    A nd           | Version:  11
     \\/     M anipulation  |
\*---------------------------------------------------------------------------*/
FoamFile
{
    format      ascii;
    class       surfaceScalarField;
    location    "2";
    object      meshPhi;
}
// * * * * * * * * * * * * * * * * * * * * * * * * * * * * * * * * * * * * * //

dimensions      [0 3 -1 0 0 0 0];

internalField   nonuniform List<scalar> 
5640
(
1.36944e-16
9.81747e-07
2.42116e-16
1.37445e-06
3.76991e-16
1.76715e-06
-1.33933e-15
2.15984e-06
-3.68159e-15
2.55254e-06
2.94524e-06
5.95128e-15
1.83421e-18
9.81747e-07
-3.88769e-16
1.37445e-06
-2.60419e-15
1.76715e-06
1.94362e-15
2.15984e-06
8.06616e-15
2.55254e-06
2.94524e-06
-9.02968e-15
-1.16461e-16
9.81747e-07
1.86373e-16
1.37445e-06
-1.56239e-15
1.76715e-06
-4.2125e-15
2.15984e-06
-7.49847e-15
2.55254e-06
2.94524e-06
7.72192e-16
8.69519e-17
9.81747e-07
-1.01959e-16
1.37445e-06
2.69312e-15
1.76715e-06
7.44279e-15
2.15984e-06
3.25977e-15
2.55254e-06
2.94524e-06
-2.79805e-15
-4.83841e-17
9.81747e-07
3.94825e-17
1.37445e-06
1.94265e-16
1.76715e-06
-1.80607e-15
2.15984e-06
-4.20863e-15
2.55254e-06
2.94524e-06
5.01326e-15
-1.801e-16
9.81747e-07
4.31281e-18
1.37445e-06
-1.84779e-15
1.76715e-06
-3.88614e-15
2.15984e-06
3.15701e-15
2.55254e-06
2.94524e-06
4.98106e-16
2.5398e-16
9.81747e-07
2.55497e-16
1.37445e-06
2.06597e-15
1.76715e-06
4.50423e-15
2.15984e-06
-2.30995e-15
2.55254e-06
2.94524e-06
5.41006e-16
2.16501e-17
9.81747e-07
-3.21668e-16
1.37445e-06
-1.14889e-15
1.76715e-06
-5.28559e-15
2.15984e-06
-3.76793e-16
2.55254e-06
2.94524e-06
-5.63987e-15
-1.43398e-16
9.81747e-07
1.66394e-16
1.37445e-06
4.19111e-15
1.76715e-06
6.34948e-15
2.15984e-06
-8.05716e-16
2.55254e-06
2.94524e-06
8.39211e-16
-6.8802e-17
9.81747e-07
-9.20313e-17
1.37445e-06
-2.76935e-15
1.76715e-06
-3.68842e-16
2.15984e-06
-1.45085e-15
2.55254e-06
2.94524e-06
-1.76661e-16
1.66344e-16
9.81747e-07
-8.86684e-17
1.37445e-06
5.69611e-16
1.76715e-06
-2.10352e-15
2.15984e-06
9.66007e-15
2.55254e-06
2.94524e-06
5.29031e-15
-1.77782e-16
9.81747e-07
-2.05418e-17
1.37445e-06
-3.45475e-16
1.76715e-06
-4.17261e-15
2.15984e-06
-2.62235e-15
2.55254e-06
2.94524e-06
5.36945e-15
1.77785e-16
9.81747e-07
2.05318e-17
1.37445e-06
3.45506e-16
1.76715e-06
4.17264e-15
2.15984e-06
2.62241e-15
2.55254e-06
2.94524e-06
-5.36939e-15
-1.66318e-16
9.81747e-07
8.87298e-17
1.37445e-06
-5.69665e-16
1.76715e-06
2.1036e-15
2.15984e-06
-9.65998e-15
2.55254e-06
2.94524e-06
-5.29024e-15
6.88234e-17
9.81747e-07
9.2051e-17
1.37445e-06
2.76936e-15
1.76715e-06
3.68825e-16
2.15984e-06
1.4509e-15
2.55254e-06
2.94524e-06
1.7659e-16
1.43415e-16
9.81747e-07
-1.6641e-16
1.37445e-06
-4.19107e-15
1.76715e-06
-6.34943e-15
2.15984e-06
8.05713e-16
2.55254e-06
2.94524e-06
-8.39267e-16
-2.16505e-17
9.81747e-07
3.21675e-16
1.37445e-06
1.14892e-15
1.76715e-06
5.28567e-15
2.15984e-06
3.76737e-16
2.55254e-06
2.94524e-06
5.63989e-15
-2.53966e-16
9.81747e-07
-2.55438e-16
1.37445e-06
-2.06598e-15
1.76715e-06
-4.50413e-15
2.15984e-06
2.31001e-15
2.55254e-06
2.94524e-06
-5.40957e-16
1.80097e-16
9.81747e-07
-4.29227e-18
1.37445e-06
1.84769e-15
1.76715e-06
3.88613e-15
2.15984e-06
-3.15701e-15
2.55254e-06
2.94524e-06
-4.98195e-16
4.83596e-17
9.81747e-07
-3.9494e-17
1.37445e-06
-1.94311e-16
1.76715e-06
1.80608e-15
2.15984e-06
4.2087e-15
2.55254e-06
2.94524e-06
-5.0135e-15
-8.6959e-17
9.81747e-07
1.01911e-16
1.37445e-06
-2.69318e-15
1.76715e-06
-7.44282e-15
2.15984e-06
-3.25973e-15
2.55254e-06
2.94524e-06
2.79777e-15
1.16466e-16
9.81747e-07
-1.86379e-16
1.37445e-06
1.56231e-15
1.76715e-06
4.21243e-15
2.15984e-06
7.49846e-15
2.55254e-06
2.94524e-06
-7.72271e-16
-1.83738e-18
9.81747e-07
3.88771e-16
1.37445e-06
2.60413e-15
1.76715e-06
-1.94359e-15
2.15984e-06
-8.06639e-15
2.55254e-06
2.94524e-06
9.03002e-15
-1.36944e-16
-2.42054e-16
-3.77023e-16
1.33925e-15
3.68165e-15
-5.9512e-15
-1.13359e-14
4.53785e-06
-4.53785e-06
-4.81141e-16
5.23599e-06
-5.23599e-06
-5.35731e-15
5.93412e-06
-5.93412e-06
-1.13034e-14
6.63225e-06
-6.63225e-06
4.86929e-15
7.33038e-06
-7.33038e-06
-1.10925e-15
8.02851e-06
-8.02851e-06
-8.158e-15
8.72664e-06
-8.72664e-06
1.3045e-14
9.42478e-06
-9.42478e-06
5.94917e-15
1.01229e-05
-1.01229e-05
-1.99654e-15
1.0821e-05
-1.0821e-05
2.43864e-14
1.15192e-05
-1.15192e-05
1.61895e-14
1.22173e-05
-1.22173e-05
-3.27866e-14
1.29154e-05
-1.29154e-05
-3.05263e-15
1.36136e-05
-1.36136e-05
-1.44407e-14
1.43117e-05
-1.43117e-05
-2.69001e-14
1.50098e-05
-1.50098e-05
7.73932e-15
1.5708e-05
-1.5708e-05
-4.437e-15
1.64061e-05
-1.64061e-05
-1.80026e-14
1.71042e-05
-1.71042e-05
2.18251e-14
1.78024e-05
-1.78024e-05
8.21063e-15
1.85005e-05
-1.85005e-05
-6.0807e-15
1.91986e-05
-1.91986e-05
3.8921e-14
1.98967e-05
-1.98967e-05
2.05949e-05
-2.05949e-05
9.39897e-15
4.53785e-06
5.20032e-16
5.23599e-06
7.52824e-15
5.93412e-06
-4.4116e-15
6.63225e-06
3.78334e-15
7.33038e-06
1.33852e-14
8.02851e-06
-2.10924e-15
8.72664e-06
8.52904e-15
9.42478e-06
-1.00277e-14
1.01229e-05
1.86538e-15
1.0821e-05
-2.02031e-14
1.15192e-05
-7.01151e-15
1.22173e-05
7.51044e-15
1.29154e-05
2.36102e-14
1.36136e-05
-2.04319e-15
1.43117e-05
1.48329e-14
1.50098e-05
-1.38778e-14
1.5708e-05
2.39289e-15
1.64061e-05
2.04107e-14
1.71042e-05
-7.01495e-15
1.78024e-05
1.20668e-14
1.85005e-05
-2.59383e-14
1.91986e-05
1.85088e-15
1.98967e-05
2.05949e-05
-8.67611e-15
4.53785e-06
1.22923e-14
5.23599e-06
1.88334e-15
5.93412e-06
8.90238e-15
6.63225e-06
-5.10865e-15
7.33038e-06
-2.19912e-14
8.02851e-06
1.2265e-14
8.72664e-06
-5.37492e-15
9.42478e-06
4.45619e-15
1.01229e-05
-1.43058e-14
1.0821e-05
-7.32556e-15
1.15192e-05
7.03971e-15
1.22173e-05
2.39931e-14
1.29154e-05
-7.55189e-15
1.36136e-05
9.79979e-15
1.43117e-05
-1.62381e-14
1.50098e-05
4.02928e-14
1.5708e-05
1.44459e-14
1.64061e-05
-1.37058e-14
1.71042e-05
-7.89668e-15
1.78024e-05
-3.92503e-14
1.85005e-05
4.27564e-14
1.91986e-05
-8.84783e-15
1.98967e-05
2.05949e-05
5.98572e-15
4.53785e-06
2.19065e-16
5.23599e-06
-6.43552e-15
5.93412e-06
6.06413e-15
6.63225e-06
-2.09197e-15
7.33038e-06
1.61769e-14
8.02851e-06
-1.88303e-14
8.72664e-06
-2.3508e-15
9.42478e-06
9.17211e-15
1.01229e-05
-4.71135e-15
1.0821e-05
2.16268e-14
1.15192e-05
-2.96451e-14
1.22173e-05
-9.28975e-15
1.29154e-05
-1.89091e-14
1.36136e-05
4.4671e-15
1.43117e-05
3.0155e-14
1.50098e-05
-2.62195e-14
1.5708e-05
4.35373e-16
1.64061e-05
-2.1173e-14
1.71042e-05
1.87162e-14
1.78024e-05
-3.91786e-15
1.85005e-05
-2.91561e-14
1.91986e-05
1.52348e-14
1.98967e-05
2.05949e-05
6.71509e-15
4.53785e-06
-7.30676e-15
5.23599e-06
1.1101e-14
5.93412e-06
-4.24068e-15
6.63225e-06
1.51024e-14
7.33038e-06
-5.20954e-15
8.02851e-06
1.70134e-14
8.72664e-06
-3.94105e-15
9.42478e-06
-2.94477e-16
1.01229e-05
6.61105e-15
1.0821e-05
1.37051e-14
1.15192e-05
1.01852e-14
1.22173e-05
1.822e-14
1.29154e-05
1.4371e-14
1.36136e-05
2.33386e-14
1.43117e-05
-2.53447e-14
1.50098e-05
2.90708e-14
1.5708e-05
-7.82711e-15
1.64061e-05
3.54185e-14
1.71042e-05
-4.51324e-15
1.78024e-05
4.2375e-14
1.85005e-05
-5.84623e-16
1.91986e-05
-8.72869e-15
1.98967e-05
2.05949e-05
-4.63037e-15
4.53785e-06
5.79771e-15
5.23599e-06
-1.61505e-14
5.93412e-06
-5.97446e-15
6.63225e-06
-8.55497e-15
7.33038e-06
4.22426e-15
8.02851e-06
-8.18686e-15
8.72664e-06
6.99961e-15
9.42478e-06
-2.42301e-14
1.01229e-05
-7.76842e-15
1.0821e-05
-2.27649e-14
1.15192e-05
8.3509e-15
1.22173e-05
-7.40251e-15
1.29154e-05
2.82681e-14
1.36136e-05
-4.57134e-14
1.43117e-05
-8.22093e-15
1.50098e-05
-2.82264e-14
1.5708e-05
-2.33846e-15
1.64061e-05
-6.94419e-15
1.71042e-05
2.21503e-14
1.78024e-05
-3.41082e-14
1.85005e-05
-3.74199e-15
1.91986e-05
-3.2346e-14
1.98967e-05
2.05949e-05
-8.92511e-15
4.53785e-06
-2.28875e-15
5.23599e-06
-2.22395e-15
5.93412e-06
6.6161e-15
6.63225e-06
-3.38764e-15
7.33038e-06
-3.90675e-15
8.02851e-06
-6.41855e-15
8.72664e-06
-7.15834e-15
9.42478e-06
6.81121e-15
1.01229e-05
6.98279e-15
1.0821e-05
-9.06487e-15
1.15192e-05
6.76004e-15
1.22173e-05
-2.88876e-14
1.29154e-05
-1.22347e-14
1.36136e-05
4.80392e-15
1.43117e-05
2.50255e-14
1.50098e-05
3.86385e-15
1.5708e-05
3.61106e-15
1.64061e-05
-2.04824e-14
1.71042e-05
-2.17566e-14
1.78024e-05
3.46527e-15
1.85005e-05
2.904e-14
1.91986e-05
-1.66134e-15
1.98967e-05
2.05949e-05
6.21571e-15
4.53785e-06
-3.87934e-15
5.23599e-06
1.54219e-14
5.93412e-06
-7.06498e-15
6.63225e-06
-2.21032e-15
7.33038e-06
1.42943e-15
8.02851e-06
-5.49312e-15
8.72664e-06
1.32267e-14
9.42478e-06
6.04681e-15
1.01229e-05
-1.74514e-14
1.0821e-05
2.08871e-14
1.15192e-05
-2.14452e-14
1.22173e-05
1.91357e-14
1.29154e-05
-7.31648e-15
1.36136e-05
3.84869e-14
1.43117e-05
-1.29221e-14
1.50098e-05
-1.88458e-15
1.5708e-05
5.71773e-15
1.64061e-05
-7.58704e-15
1.71042e-05
2.76605e-14
1.78024e-05
1.4101e-14
1.85005e-05
-5.31441e-14
1.91986e-05
3.90851e-14
1.98967e-05
2.05949e-05
-1.49847e-15
4.53785e-06
1.08974e-14
5.23599e-06
-6.59949e-15
5.93412e-06
7.26561e-15
6.63225e-06
6.1747e-15
7.33038e-06
2.48899e-15
8.02851e-06
-9.65161e-16
8.72664e-06
-4.36451e-15
9.42478e-06
-8.90084e-15
1.01229e-05
1.38632e-14
1.0821e-05
1.06916e-14
1.15192e-05
6.25076e-15
1.22173e-05
-1.26954e-16
1.29154e-05
-3.43758e-15
1.36136e-05
-1.10439e-14
1.43117e-05
-1.77642e-14
1.50098e-05
1.76798e-14
1.5708e-05
9.95594e-15
1.64061e-05
3.33056e-15
1.71042e-05
-3.29687e-14
1.78024e-05
-1.04208e-14
1.85005e-05
3.00668e-14
1.91986e-05
-5.99943e-14
1.98967e-05
2.05949e-05
5.17022e-15
4.53785e-06
-7.45568e-15
5.23599e-06
-7.56844e-16
5.93412e-06
6.83969e-15
6.63225e-06
-9.97456e-15
7.33038e-06
-1.66466e-15
8.02851e-06
9.21899e-15
8.72664e-06
-1.34596e-14
9.42478e-06
2.32214e-14
1.01229e-05
1.04722e-14
1.0821e-05
-1.72722e-14
1.15192e-05
-3.02738e-15
1.22173e-05
1.13976e-14
1.29154e-05
-1.98151e-14
1.36136e-05
-4.67763e-15
1.43117e-05
5.03057e-14
1.50098e-05
-2.40441e-14
1.5708e-05
-6.65866e-15
1.64061e-05
1.42606e-14
1.71042e-05
1.65114e-15
1.78024e-05
-6.81124e-15
1.85005e-05
1.4445e-14
1.91986e-05
5.07559e-14
1.98967e-05
2.05949e-05
-6.19734e-15
4.53785e-06
2.84589e-17
5.23599e-06
1.15114e-14
5.93412e-06
-2.06259e-14
6.63225e-06
5.36648e-15
7.33038e-06
1.22151e-15
8.02851e-06
-4.71822e-17
8.72664e-06
1.23936e-14
9.42478e-06
-1.3226e-14
1.01229e-05
-1.88946e-14
1.0821e-05
-4.96497e-15
1.15192e-05
-7.1547e-15
1.22173e-05
-1.4887e-14
1.29154e-05
3.53395e-14
1.36136e-05
-3.33328e-19
1.43117e-05
-4.31395e-14
1.50098e-05
1.35646e-14
1.5708e-05
-2.82547e-14
1.64061e-05
2.45285e-15
1.71042e-05
-1.02372e-14
1.78024e-05
2.38069e-14
1.85005e-05
1.38745e-14
1.91986e-05
-4.55634e-14
1.98967e-05
2.05949e-05
-1.90678e-15
4.53785e-06
1.13091e-15
5.23599e-06
-2.16618e-14
5.93412e-06
9.62376e-15
6.63225e-06
1.5137e-14
7.33038e-06
-1.40653e-14
8.02851e-06
8.09365e-15
8.72664e-06
-2.69591e-14
9.42478e-06
-1.96609e-15
1.01229e-05
2.97171e-14
1.0821e-05
-1.17468e-14
1.15192e-05
1.98673e-14
1.22173e-05
-2.74451e-14
1.29154e-05
-2.06167e-14
1.36136e-05
1.60428e-14
1.43117e-05
-4.61458e-15
1.50098e-05
4.69391e-15
1.5708e-05
4.79672e-14
1.64061e-05
-1.37383e-14
1.71042e-05
3.23746e-14
1.78024e-05
-3.51849e-14
1.85005e-05
-2.49048e-14
1.91986e-05
7.19191e-14
1.98967e-05
2.05949e-05
1.90653e-15
4.53785e-06
-1.1303e-15
5.23599e-06
2.1662e-14
5.93412e-06
-9.62376e-15
6.63225e-06
-1.51375e-14
7.33038e-06
1.40653e-14
8.02851e-06
-8.09293e-15
8.72664e-06
2.69592e-14
9.42478e-06
1.96563e-15
1.01229e-05
-2.97154e-14
1.0821e-05
1.17454e-14
1.15192e-05
-1.98669e-14
1.22173e-05
2.7445e-14
1.29154e-05
2.0616e-14
1.36136e-05
-1.60384e-14
1.43117e-05
4.61493e-15
1.50098e-05
-4.69068e-15
1.5708e-05
-4.79664e-14
1.64061e-05
1.37384e-14
1.71042e-05
-3.23717e-14
1.78024e-05
3.51876e-14
1.85005e-05
2.49036e-14
1.91986e-05
-7.19123e-14
1.98967e-05
2.05949e-05
6.1973e-15
4.53785e-06
-2.836e-17
5.23599e-06
-1.15112e-14
5.93412e-06
2.06259e-14
6.63225e-06
-5.36705e-15
7.33038e-06
-1.22166e-15
8.02851e-06
4.69813e-17
8.72664e-06
-1.23938e-14
9.42478e-06
1.32268e-14
1.01229e-05
1.88947e-14
1.0821e-05
4.96438e-15
1.15192e-05
7.15561e-15
1.22173e-05
1.48874e-14
1.29154e-05
-3.53386e-14
1.36136e-05
1.57053e-18
1.43117e-05
4.31379e-14
1.50098e-05
-1.35628e-14
1.5708e-05
2.82565e-14
1.64061e-05
-2.4555e-15
1.71042e-05
1.02403e-14
1.78024e-05
-2.38041e-14
1.85005e-05
-1.3875e-14
1.91986e-05
4.55634e-14
1.98967e-05
2.05949e-05
-5.16999e-15
4.53785e-06
7.45555e-15
5.23599e-06
7.57072e-16
5.93412e-06
-6.83983e-15
6.63225e-06
9.97419e-15
7.33038e-06
1.66485e-15
8.02851e-06
-9.21911e-15
8.72664e-06
1.34595e-14
9.42478e-06
-2.32206e-14
1.01229e-05
-1.04732e-14
1.0821e-05
1.72717e-14
1.15192e-05
3.02829e-15
1.22173e-05
-1.13976e-14
1.29154e-05
1.98158e-14
1.36136e-05
4.67719e-15
1.43117e-05
-5.03073e-14
1.50098e-05
2.4045e-14
1.5708e-05
6.65939e-15
1.64061e-05
-1.4261e-14
1.71042e-05
-1.64849e-15
1.78024e-05
6.81211e-15
1.85005e-05
-1.4441e-14
1.91986e-05
-5.07581e-14
1.98967e-05
2.05949e-05
1.49863e-15
4.53785e-06
-1.08973e-14
5.23599e-06
6.5997e-15
5.93412e-06
-7.26577e-15
6.63225e-06
-6.17514e-15
7.33038e-06
-2.48822e-15
8.02851e-06
9.64577e-16
8.72664e-06
4.36533e-15
9.42478e-06
8.90049e-15
1.01229e-05
-1.38631e-14
1.0821e-05
-1.06901e-14
1.15192e-05
-6.2505e-15
1.22173e-05
1.2774e-16
1.29154e-05
3.43922e-15
1.36136e-05
1.10454e-14
1.43117e-05
1.77646e-14
1.50098e-05
-1.76805e-14
1.5708e-05
-9.9529e-15
1.64061e-05
-3.33147e-15
1.71042e-05
3.29676e-14
1.78024e-05
1.04239e-14
1.85005e-05
-3.00678e-14
1.91986e-05
5.99954e-14
1.98967e-05
2.05949e-05
-6.21576e-15
4.53785e-06
3.87928e-15
5.23599e-06
-1.54223e-14
5.93412e-06
7.06499e-15
6.63225e-06
2.2107e-15
7.33038e-06
-1.42971e-15
8.02851e-06
5.49347e-15
8.72664e-06
-1.32258e-14
9.42478e-06
-6.04531e-15
1.01229e-05
1.74508e-14
1.0821e-05
-2.08866e-14
1.15192e-05
2.14439e-14
1.22173e-05
-1.91344e-14
1.29154e-05
7.31711e-15
1.36136e-05
-3.84846e-14
1.43117e-05
1.29227e-14
1.50098e-05
1.88266e-15
1.5708e-05
-5.71885e-15
1.64061e-05
7.58488e-15
1.71042e-05
-2.76626e-14
1.78024e-05
-1.41004e-14
1.85005e-05
5.31434e-14
1.91986e-05
-3.90866e-14
1.98967e-05
2.05949e-05
8.9251e-15
4.53785e-06
2.28898e-15
5.23599e-06
2.22402e-15
5.93412e-06
-6.61633e-15
6.63225e-06
3.38838e-15
7.33038e-06
3.90652e-15
8.02851e-06
6.41963e-15
8.72664e-06
7.15935e-15
9.42478e-06
-6.81051e-15
1.01229e-05
-6.98199e-15
1.0821e-05
9.06525e-15
1.15192e-05
-6.76039e-15
1.22173e-05
2.88873e-14
1.29154e-05
1.2235e-14
1.36136e-05
-4.80635e-15
1.43117e-05
-2.50261e-14
1.50098e-05
-3.86132e-15
1.5708e-05
-3.60857e-15
1.64061e-05
2.04816e-14
1.71042e-05
2.17582e-14
1.78024e-05
-3.46832e-15
1.85005e-05
-2.90408e-14
1.91986e-05
1.66084e-15
1.98967e-05
2.05949e-05
4.63042e-15
4.53785e-06
-5.79753e-15
5.23599e-06
1.61505e-14
5.93412e-06
5.97504e-15
6.63225e-06
8.5547e-15
7.33038e-06
-4.22293e-15
8.02851e-06
8.18684e-15
8.72664e-06
-6.99944e-15
9.42478e-06
2.42301e-14
1.01229e-05
7.77016e-15
1.0821e-05
2.27629e-14
1.15192e-05
-8.34953e-15
1.22173e-05
7.40301e-15
1.29154e-05
-2.82653e-14
1.36136e-05
4.57098e-14
1.43117e-05
8.22343e-15
1.50098e-05
2.82279e-14
1.5708e-05
2.3434e-15
1.64061e-05
6.94042e-15
1.71042e-05
-2.21522e-14
1.78024e-05
3.41091e-14
1.85005e-05
3.7413e-15
1.91986e-05
3.23462e-14
1.98967e-05
2.05949e-05
-6.71534e-15
4.53785e-06
7.30677e-15
5.23599e-06
-1.1101e-14
5.93412e-06
4.24127e-15
6.63225e-06
-1.51026e-14
7.33038e-06
5.20934e-15
8.02851e-06
-1.70128e-14
8.72664e-06
3.94068e-15
9.42478e-06
2.93896e-16
1.01229e-05
-6.61109e-15
1.0821e-05
-1.37058e-14
1.15192e-05
-1.01857e-14
1.22173e-05
-1.82194e-14
1.29154e-05
-1.43691e-14
1.36136e-05
-2.33369e-14
1.43117e-05
2.53443e-14
1.50098e-05
-2.90739e-14
1.5708e-05
7.82619e-15
1.64061e-05
-3.54171e-14
1.71042e-05
4.51304e-15
1.78024e-05
-4.23714e-14
1.85005e-05
5.83111e-16
1.91986e-05
8.73466e-15
1.98967e-05
2.05949e-05
-5.98602e-15
4.53785e-06
-2.18805e-16
5.23599e-06
6.43542e-15
5.93412e-06
-6.06419e-15
6.63225e-06
2.09278e-15
7.33038e-06
-1.61762e-14
8.02851e-06
1.88311e-14
8.72664e-06
2.35124e-15
9.42478e-06
-9.17298e-15
1.01229e-05
4.71049e-15
1.0821e-05
-2.16274e-14
1.15192e-05
2.96451e-14
1.22173e-05
9.28916e-15
1.29154e-05
1.89052e-14
1.36136e-05
-4.46353e-15
1.43117e-05
-3.01541e-14
1.50098e-05
2.62174e-14
1.5708e-05
-4.34867e-16
1.64061e-05
2.11718e-14
1.71042e-05
-1.87157e-14
1.78024e-05
3.92299e-15
1.85005e-05
2.91575e-14
1.91986e-05
-1.523e-14
1.98967e-05
2.05949e-05
8.67617e-15
4.53785e-06
-1.22921e-14
5.23599e-06
-1.883e-15
5.93412e-06
-8.90223e-15
6.63225e-06
5.10799e-15
7.33038e-06
2.19904e-14
8.02851e-06
-1.22649e-14
8.72664e-06
5.37467e-15
9.42478e-06
-4.45633e-15
1.01229e-05
1.4306e-14
1.0821e-05
7.32515e-15
1.15192e-05
-7.04095e-15
1.22173e-05
-2.39957e-14
1.29154e-05
7.55421e-15
1.36136e-05
-9.79541e-15
1.43117e-05
1.62376e-14
1.50098e-05
-4.0294e-14
1.5708e-05
-1.44443e-14
1.64061e-05
1.37057e-14
1.71042e-05
7.89609e-15
1.78024e-05
3.9253e-14
1.85005e-05
-4.2753e-14
1.91986e-05
8.84776e-15
1.98967e-05
2.05949e-05
-9.39882e-15
4.53785e-06
-5.20258e-16
5.23599e-06
-7.52827e-15
5.93412e-06
4.41148e-15
6.63225e-06
-3.78306e-15
7.33038e-06
-1.33847e-14
8.02851e-06
2.10975e-15
8.72664e-06
-8.52724e-15
9.42478e-06
1.00266e-14
1.01229e-05
-1.86673e-15
1.0821e-05
2.02034e-14
1.15192e-05
7.01296e-15
1.22173e-05
-7.50955e-15
1.29154e-05
-2.3609e-14
1.36136e-05
2.04395e-15
1.43117e-05
-1.48318e-14
1.50098e-05
1.38772e-14
1.5708e-05
-2.39071e-15
1.64061e-05
-2.04106e-14
1.71042e-05
7.01569e-15
1.78024e-05
-1.20657e-14
1.85005e-05
2.59416e-14
1.91986e-05
-1.84708e-15
1.98967e-05
2.05949e-05
1.13362e-14
4.53785e-06
4.81072e-16
5.23599e-06
5.35711e-15
5.93412e-06
1.13035e-14
6.63225e-06
-4.86924e-15
7.33038e-06
1.10944e-15
8.02851e-06
8.15837e-15
8.72664e-06
-1.30446e-14
9.42478e-06
-5.94929e-15
1.01229e-05
1.99619e-15
1.0821e-05
-2.43858e-14
1.15192e-05
-1.61892e-14
1.22173e-05
3.27855e-14
1.29154e-05
3.04999e-15
1.36136e-05
1.44425e-14
1.43117e-05
2.69e-14
1.50098e-05
-7.74112e-15
1.5708e-05
4.43775e-15
1.64061e-05
1.80011e-14
1.71042e-05
-2.18206e-14
1.78024e-05
-8.21241e-15
1.85005e-05
6.07916e-15
1.91986e-05
-3.89189e-14
1.98967e-05
2.05949e-05
1.36937e-16
9.81747e-07
2.42059e-16
1.37445e-06
3.76896e-16
1.76715e-06
-1.33924e-15
2.15984e-06
-3.68152e-15
2.55254e-06
2.94524e-06
5.95128e-15
1.83421e-18
9.81747e-07
-3.88769e-16
1.37445e-06
-2.60419e-15
1.76715e-06
1.94362e-15
2.15984e-06
8.06616e-15
2.55254e-06
2.94524e-06
-9.02968e-15
-1.16461e-16
9.81747e-07
1.86373e-16
1.37445e-06
-1.56239e-15
1.76715e-06
-4.2125e-15
2.15984e-06
-7.49847e-15
2.55254e-06
2.94524e-06
7.72192e-16
8.69519e-17
9.81747e-07
-1.01959e-16
1.37445e-06
2.69312e-15
1.76715e-06
7.44279e-15
2.15984e-06
3.25977e-15
2.55254e-06
2.94524e-06
-2.79805e-15
-4.83841e-17
9.81747e-07
3.94825e-17
1.37445e-06
1.94265e-16
1.76715e-06
-1.80607e-15
2.15984e-06
-4.20863e-15
2.55254e-06
2.94524e-06
5.01326e-15
-1.801e-16
9.81747e-07
4.31281e-18
1.37445e-06
-1.84779e-15
1.76715e-06
-3.88614e-15
2.15984e-06
3.15701e-15
2.55254e-06
2.94524e-06
4.98106e-16
2.5398e-16
9.81747e-07
2.55497e-16
1.37445e-06
2.06597e-15
1.76715e-06
4.50423e-15
2.15984e-06
-2.30995e-15
2.55254e-06
2.94524e-06
5.41006e-16
2.16501e-17
9.81747e-07
-3.21668e-16
1.37445e-06
-1.14889e-15
1.76715e-06
-5.28559e-15
2.15984e-06
-3.76793e-16
2.55254e-06
2.94524e-06
-5.63987e-15
-1.43398e-16
9.81747e-07
1.66394e-16
1.37445e-06
4.19111e-15
1.76715e-06
6.34948e-15
2.15984e-06
-8.05716e-16
2.55254e-06
2.94524e-06
8.39211e-16
-6.8802e-17
9.81747e-07
-9.20313e-17
1.37445e-06
-2.76935e-15
1.76715e-06
-3.68842e-16
2.15984e-06
-1.45085e-15
2.55254e-06
2.94524e-06
-1.76661e-16
1.66344e-16
9.81747e-07
-8.86684e-17
1.37445e-06
5.69611e-16
1.76715e-06
-2.10352e-15
2.15984e-06
9.66007e-15
2.55254e-06
2.94524e-06
5.29031e-15
-1.77782e-16
9.81747e-07
-2.05418e-17
1.37445e-06
-3.45475e-16
1.76715e-06
-4.17261e-15
2.15984e-06
-2.62235e-15
2.55254e-06
2.94524e-06
5.36945e-15
1.77785e-16
9.81747e-07
2.05318e-17
1.37445e-06
3.45506e-16
1.76715e-06
4.17264e-15
2.15984e-06
2.62241e-15
2.55254e-06
2.94524e-06
-5.36939e-15
-1.66318e-16
9.81747e-07
8.87298e-17
1.37445e-06
-5.69665e-16
1.76715e-06
2.1036e-15
2.15984e-06
-9.65998e-15
2.55254e-06
2.94524e-06
-5.29024e-15
6.88234e-17
9.81747e-07
9.2051e-17
1.37445e-06
2.76936e-15
1.76715e-06
3.68825e-16
2.15984e-06
1.4509e-15
2.55254e-06
2.94524e-06
1.7659e-16
1.43415e-16
9.81747e-07
-1.6641e-16
1.37445e-06
-4.19107e-15
1.76715e-06
-6.34943e-15
2.15984e-06
8.05713e-16
2.55254e-06
2.94524e-06
-8.39267e-16
-2.16505e-17
9.81747e-07
3.21675e-16
1.37445e-06
1.14892e-15
1.76715e-06
5.28567e-15
2.15984e-06
3.76737e-16
2.55254e-06
2.94524e-06
5.63989e-15
-2.53966e-16
9.81747e-07
-2.55438e-16
1.37445e-06
-2.06598e-15
1.76715e-06
-4.50413e-15
2.15984e-06
2.31001e-15
2.55254e-06
2.94524e-06
-5.40957e-16
1.80097e-16
9.81747e-07
-4.29227e-18
1.37445e-06
1.84769e-15
1.76715e-06
3.88613e-15
2.15984e-06
-3.15701e-15
2.55254e-06
2.94524e-06
-4.98195e-16
4.83596e-17
9.81747e-07
-3.9494e-17
1.37445e-06
-1.94311e-16
1.76715e-06
1.80608e-15
2.15984e-06
4.2087e-15
2.55254e-06
2.94524e-06
-5.0135e-15
-8.6959e-17
9.81747e-07
1.01911e-16
1.37445e-06
-2.69318e-15
1.76715e-06
-7.44282e-15
2.15984e-06
-3.25973e-15
2.55254e-06
2.94524e-06
2.79777e-15
1.16466e-16
9.81747e-07
-1.86379e-16
1.37445e-06
1.56231e-15
1.76715e-06
4.21243e-15
2.15984e-06
7.49846e-15
2.55254e-06
2.94524e-06
-7.72271e-16
-1.83738e-18
9.81747e-07
3.88771e-16
1.37445e-06
2.60413e-15
1.76715e-06
-1.94359e-15
2.15984e-06
-8.06639e-15
2.55254e-06
2.94524e-06
9.03002e-15
-1.36944e-16
-2.42072e-16
-3.76999e-16
1.33936e-15
3.68159e-15
-5.95127e-15
-1.13362e-14
4.53785e-06
-4.81242e-16
5.23599e-06
-5.35697e-15
5.93412e-06
-1.13035e-14
6.63225e-06
4.86957e-15
7.33038e-06
-1.10925e-15
8.02851e-06
-8.15833e-15
8.72664e-06
1.3045e-14
9.42478e-06
5.94992e-15
1.01229e-05
-1.99694e-15
1.0821e-05
2.43863e-14
1.15192e-05
1.61895e-14
1.22173e-05
-3.27857e-14
1.29154e-05
-3.05162e-15
1.36136e-05
-1.44418e-14
1.43117e-05
-2.69024e-14
1.50098e-05
7.73816e-15
1.5708e-05
-4.437e-15
1.64061e-05
-1.80026e-14
1.71042e-05
2.18224e-14
1.78024e-05
8.21199e-15
1.85005e-05
-6.0807e-15
1.91986e-05
3.89239e-14
1.98967e-05
2.05949e-05
9.39897e-15
4.53785e-06
5.20032e-16
5.23599e-06
7.52824e-15
5.93412e-06
-4.4116e-15
6.63225e-06
3.78334e-15
7.33038e-06
1.33852e-14
8.02851e-06
-2.10924e-15
8.72664e-06
8.52904e-15
9.42478e-06
-1.00277e-14
1.01229e-05
1.86538e-15
1.0821e-05
-2.02031e-14
1.15192e-05
-7.01151e-15
1.22173e-05
7.51044e-15
1.29154e-05
2.36102e-14
1.36136e-05
-2.04319e-15
1.43117e-05
1.48329e-14
1.50098e-05
-1.38778e-14
1.5708e-05
2.39289e-15
1.64061e-05
2.04107e-14
1.71042e-05
-7.01495e-15
1.78024e-05
1.20668e-14
1.85005e-05
-2.59383e-14
1.91986e-05
1.85088e-15
1.98967e-05
2.05949e-05
-8.67611e-15
4.53785e-06
1.22923e-14
5.23599e-06
1.88334e-15
5.93412e-06
8.90238e-15
6.63225e-06
-5.10865e-15
7.33038e-06
-2.19912e-14
8.02851e-06
1.2265e-14
8.72664e-06
-5.37492e-15
9.42478e-06
4.45619e-15
1.01229e-05
-1.43058e-14
1.0821e-05
-7.32556e-15
1.15192e-05
7.03971e-15
1.22173e-05
2.39931e-14
1.29154e-05
-7.55189e-15
1.36136e-05
9.79979e-15
1.43117e-05
-1.62381e-14
1.50098e-05
4.02928e-14
1.5708e-05
1.44459e-14
1.64061e-05
-1.37058e-14
1.71042e-05
-7.89668e-15
1.78024e-05
-3.92503e-14
1.85005e-05
4.27564e-14
1.91986e-05
-8.84783e-15
1.98967e-05
2.05949e-05
5.98572e-15
4.53785e-06
2.19065e-16
5.23599e-06
-6.43552e-15
5.93412e-06
6.06413e-15
6.63225e-06
-2.09197e-15
7.33038e-06
1.61769e-14
8.02851e-06
-1.88303e-14
8.72664e-06
-2.3508e-15
9.42478e-06
9.17211e-15
1.01229e-05
-4.71135e-15
1.0821e-05
2.16268e-14
1.15192e-05
-2.96451e-14
1.22173e-05
-9.28975e-15
1.29154e-05
-1.89091e-14
1.36136e-05
4.4671e-15
1.43117e-05
3.0155e-14
1.50098e-05
-2.62195e-14
1.5708e-05
4.35373e-16
1.64061e-05
-2.1173e-14
1.71042e-05
1.87162e-14
1.78024e-05
-3.91786e-15
1.85005e-05
-2.91561e-14
1.91986e-05
1.52348e-14
1.98967e-05
2.05949e-05
6.71509e-15
4.53785e-06
-7.30676e-15
5.23599e-06
1.1101e-14
5.93412e-06
-4.24068e-15
6.63225e-06
1.51024e-14
7.33038e-06
-5.20954e-15
8.02851e-06
1.70134e-14
8.72664e-06
-3.94105e-15
9.42478e-06
-2.94477e-16
1.01229e-05
6.61105e-15
1.0821e-05
1.37051e-14
1.15192e-05
1.01852e-14
1.22173e-05
1.822e-14
1.29154e-05
1.4371e-14
1.36136e-05
2.33386e-14
1.43117e-05
-2.53447e-14
1.50098e-05
2.90708e-14
1.5708e-05
-7.82711e-15
1.64061e-05
3.54185e-14
1.71042e-05
-4.51324e-15
1.78024e-05
4.2375e-14
1.85005e-05
-5.84623e-16
1.91986e-05
-8.72869e-15
1.98967e-05
2.05949e-05
-4.63037e-15
4.53785e-06
5.79771e-15
5.23599e-06
-1.61505e-14
5.93412e-06
-5.97446e-15
6.63225e-06
-8.55497e-15
7.33038e-06
4.22426e-15
8.02851e-06
-8.18686e-15
8.72664e-06
6.99961e-15
9.42478e-06
-2.42301e-14
1.01229e-05
-7.76842e-15
1.0821e-05
-2.27649e-14
1.15192e-05
8.3509e-15
1.22173e-05
-7.40251e-15
1.29154e-05
2.82681e-14
1.36136e-05
-4.57134e-14
1.43117e-05
-8.22093e-15
1.50098e-05
-2.82264e-14
1.5708e-05
-2.33846e-15
1.64061e-05
-6.94419e-15
1.71042e-05
2.21503e-14
1.78024e-05
-3.41082e-14
1.85005e-05
-3.74199e-15
1.91986e-05
-3.2346e-14
1.98967e-05
2.05949e-05
-8.92511e-15
4.53785e-06
-2.28875e-15
5.23599e-06
-2.22395e-15
5.93412e-06
6.6161e-15
6.63225e-06
-3.38764e-15
7.33038e-06
-3.90675e-15
8.02851e-06
-6.41855e-15
8.72664e-06
-7.15834e-15
9.42478e-06
6.81121e-15
1.01229e-05
6.98279e-15
1.0821e-05
-9.06487e-15
1.15192e-05
6.76004e-15
1.22173e-05
-2.88876e-14
1.29154e-05
-1.22347e-14
1.36136e-05
4.80392e-15
1.43117e-05
2.50255e-14
1.50098e-05
3.86385e-15
1.5708e-05
3.61106e-15
1.64061e-05
-2.04824e-14
1.71042e-05
-2.17566e-14
1.78024e-05
3.46527e-15
1.85005e-05
2.904e-14
1.91986e-05
-1.66134e-15
1.98967e-05
2.05949e-05
6.21571e-15
4.53785e-06
-3.87934e-15
5.23599e-06
1.54219e-14
5.93412e-06
-7.06498e-15
6.63225e-06
-2.21032e-15
7.33038e-06
1.42943e-15
8.02851e-06
-5.49312e-15
8.72664e-06
1.32267e-14
9.42478e-06
6.04681e-15
1.01229e-05
-1.74514e-14
1.0821e-05
2.08871e-14
1.15192e-05
-2.14452e-14
1.22173e-05
1.91357e-14
1.29154e-05
-7.31648e-15
1.36136e-05
3.84869e-14
1.43117e-05
-1.29221e-14
1.50098e-05
-1.88458e-15
1.5708e-05
5.71773e-15
1.64061e-05
-7.58704e-15
1.71042e-05
2.76605e-14
1.78024e-05
1.4101e-14
1.85005e-05
-5.31441e-14
1.91986e-05
3.90851e-14
1.98967e-05
2.05949e-05
-1.49847e-15
4.53785e-06
1.08974e-14
5.23599e-06
-6.59949e-15
5.93412e-06
7.26561e-15
6.63225e-06
6.1747e-15
7.33038e-06
2.48899e-15
8.02851e-06
-9.65161e-16
8.72664e-06
-4.36451e-15
9.42478e-06
-8.90084e-15
1.01229e-05
1.38632e-14
1.0821e-05
1.06916e-14
1.15192e-05
6.25076e-15
1.22173e-05
-1.26954e-16
1.29154e-05
-3.43758e-15
1.36136e-05
-1.10439e-14
1.43117e-05
-1.77642e-14
1.50098e-05
1.76798e-14
1.5708e-05
9.95594e-15
1.64061e-05
3.33056e-15
1.71042e-05
-3.29687e-14
1.78024e-05
-1.04208e-14
1.85005e-05
3.00668e-14
1.91986e-05
-5.99943e-14
1.98967e-05
2.05949e-05
5.17022e-15
4.53785e-06
-7.45568e-15
5.23599e-06
-7.56844e-16
5.93412e-06
6.83969e-15
6.63225e-06
-9.97456e-15
7.33038e-06
-1.66466e-15
8.02851e-06
9.21899e-15
8.72664e-06
-1.34596e-14
9.42478e-06
2.32214e-14
1.01229e-05
1.04722e-14
1.0821e-05
-1.72722e-14
1.15192e-05
-3.02738e-15
1.22173e-05
1.13976e-14
1.29154e-05
-1.98151e-14
1.36136e-05
-4.67763e-15
1.43117e-05
5.03057e-14
1.50098e-05
-2.40441e-14
1.5708e-05
-6.65866e-15
1.64061e-05
1.42606e-14
1.71042e-05
1.65114e-15
1.78024e-05
-6.81124e-15
1.85005e-05
1.4445e-14
1.91986e-05
5.07559e-14
1.98967e-05
2.05949e-05
-6.19734e-15
4.53785e-06
2.84589e-17
5.23599e-06
1.15114e-14
5.93412e-06
-2.06259e-14
6.63225e-06
5.36648e-15
7.33038e-06
1.22151e-15
8.02851e-06
-4.71822e-17
8.72664e-06
1.23936e-14
9.42478e-06
-1.3226e-14
1.01229e-05
-1.88946e-14
1.0821e-05
-4.96497e-15
1.15192e-05
-7.1547e-15
1.22173e-05
-1.4887e-14
1.29154e-05
3.53395e-14
1.36136e-05
-3.33328e-19
1.43117e-05
-4.31395e-14
1.50098e-05
1.35646e-14
1.5708e-05
-2.82547e-14
1.64061e-05
2.45285e-15
1.71042e-05
-1.02372e-14
1.78024e-05
2.38069e-14
1.85005e-05
1.38745e-14
1.91986e-05
-4.55634e-14
1.98967e-05
2.05949e-05
-1.90678e-15
4.53785e-06
1.13091e-15
5.23599e-06
-2.16618e-14
5.93412e-06
9.62376e-15
6.63225e-06
1.5137e-14
7.33038e-06
-1.40653e-14
8.02851e-06
8.09365e-15
8.72664e-06
-2.69591e-14
9.42478e-06
-1.96609e-15
1.01229e-05
2.97171e-14
1.0821e-05
-1.17468e-14
1.15192e-05
1.98673e-14
1.22173e-05
-2.74451e-14
1.29154e-05
-2.06167e-14
1.36136e-05
1.60428e-14
1.43117e-05
-4.61458e-15
1.50098e-05
4.69391e-15
1.5708e-05
4.79672e-14
1.64061e-05
-1.37383e-14
1.71042e-05
3.23746e-14
1.78024e-05
-3.51849e-14
1.85005e-05
-2.49048e-14
1.91986e-05
7.19191e-14
1.98967e-05
2.05949e-05
1.90653e-15
4.53785e-06
-1.1303e-15
5.23599e-06
2.1662e-14
5.93412e-06
-9.62376e-15
6.63225e-06
-1.51375e-14
7.33038e-06
1.40653e-14
8.02851e-06
-8.09293e-15
8.72664e-06
2.69592e-14
9.42478e-06
1.96563e-15
1.01229e-05
-2.97154e-14
1.0821e-05
1.17454e-14
1.15192e-05
-1.98669e-14
1.22173e-05
2.7445e-14
1.29154e-05
2.0616e-14
1.36136e-05
-1.60384e-14
1.43117e-05
4.61493e-15
1.50098e-05
-4.69068e-15
1.5708e-05
-4.79664e-14
1.64061e-05
1.37384e-14
1.71042e-05
-3.23717e-14
1.78024e-05
3.51876e-14
1.85005e-05
2.49036e-14
1.91986e-05
-7.19123e-14
1.98967e-05
2.05949e-05
6.1973e-15
4.53785e-06
-2.836e-17
5.23599e-06
-1.15112e-14
5.93412e-06
2.06259e-14
6.63225e-06
-5.36705e-15
7.33038e-06
-1.22166e-15
8.02851e-06
4.69813e-17
8.72664e-06
-1.23938e-14
9.42478e-06
1.32268e-14
1.01229e-05
1.88947e-14
1.0821e-05
4.96438e-15
1.15192e-05
7.15561e-15
1.22173e-05
1.48874e-14
1.29154e-05
-3.53386e-14
1.36136e-05
1.57053e-18
1.43117e-05
4.31379e-14
1.50098e-05
-1.35628e-14
1.5708e-05
2.82565e-14
1.64061e-05
-2.4555e-15
1.71042e-05
1.02403e-14
1.78024e-05
-2.38041e-14
1.85005e-05
-1.3875e-14
1.91986e-05
4.55634e-14
1.98967e-05
2.05949e-05
-5.16999e-15
4.53785e-06
7.45555e-15
5.23599e-06
7.57072e-16
5.93412e-06
-6.83983e-15
6.63225e-06
9.97419e-15
7.33038e-06
1.66485e-15
8.02851e-06
-9.21911e-15
8.72664e-06
1.34595e-14
9.42478e-06
-2.32206e-14
1.01229e-05
-1.04732e-14
1.0821e-05
1.72717e-14
1.15192e-05
3.02829e-15
1.22173e-05
-1.13976e-14
1.29154e-05
1.98158e-14
1.36136e-05
4.67719e-15
1.43117e-05
-5.03073e-14
1.50098e-05
2.4045e-14
1.5708e-05
6.65939e-15