/*--------------------------------*- C++ -*----------------------------------*\
  =========                 |
  \\      /  F ield         | OpenFOAM: The Open Source CFD Toolbox
   \\    /   O peration     | Website:  https://openfoam.org
    \\  /    A nd           | Version:  11
     \\/     M anipulation  |
\*---------------------------------------------------------------------------*/
FoamFile
{
    format      ascii;
    class       volScalarField;
    location    "2";
    object      nut;
}
// * * * * * * * * * * * * * * * * * * * * * * * * * * * * * * * * * * * * * //

dimensions      [0 2 -1 0 0 0 0];

internalField   nonuniform List<scalar> 
2880
(
1.06794e-06
5.86753e-06
2.34973e-05
4.74723e-05
7.55386e-05
0.000106558
3.36304e-05
3.53283e-05
7.88986e-05
0.000138758
0.000226232
0.000411307
0.00019325
9.21664e-05
0.000162311
0.000275792
0.000450052
0.000771845
4.93127e-05
0.000150663
0.000249557
0.000420462
0.00067209
0.00104257
5.40014e-05
0.00020428
0.000336568
0.000557814
0.000859481
0.0012281
5.76101e-05
0.000253451
0.00042001
0.000679394
0.00100553
0.00135694
6.03497e-05
0.000298393
0.00049732
0.000781728
0.00111588
0.00144511
6.23983e-05
0.000336799
0.0005664
0.000865155
0.00119821
0.00150343
6.38892e-05
0.000368095
0.000625588
0.00093344
0.0012563
0.00154164
6.49199e-05
0.000392207
0.000673277
0.000985872
0.00129696
0.00156548
6.55586e-05
0.000409161
0.000710282
0.0010247
0.00132421
0.00157875
6.58469e-05
0.000418653
0.000734367
0.00105033
0.0013406
0.00158387
6.58367e-05
0.000419693
0.000746289
0.00106295
0.00134741
0.00158215
6.57259e-05
0.000410238
0.000746073
0.00106294
0.00134443
0.00157385
6.54602e-05
0.000391786
0.00073349
0.00105044
0.00133106
0.0015583
6.49804e-05
0.000366036
0.000708394
0.00102479
0.00130641
0.00153519
6.42182e-05
0.000334694
0.000671485
0.000984969
0.00126892
0.00150354
6.30845e-05
0.000299398
0.000622203
0.000930098
0.0012132
0.00145725
6.14497e-05
0.000261793
0.000561229
0.000860116
0.0011358
0.00138472
5.91097e-05
0.000221713
0.000490419
0.000766583
0.00103046
0.00127544
5.57596e-05
0.000180552
0.000405888
0.000644133
0.000889999
0.00111002
5.09597e-05
0.000135538
0.000301067
0.000484408
0.00068316
0.000859044
3.65116e-05
7.47491e-05
0.000167718
0.000278674
0.000403323
0.000494545
1.24116e-06
6.01811e-06
2.23294e-05
5.52654e-05
0.000110887
0.000202434
0.00091327
0.00175987
0.0024323
0.0029658
0.00338373
0.00372102
0.00400249
0.00423548
0.00441897
0.00454522
0.00460192
0.00457844
0.00447261
0.00429866
0.00408853
0.00388172
0.00370871
0.00358142
0.00349593
0.00344213
0.00340948
0.00339065
0.00338085
0.00337608
0.00119498
0.00189169
0.00247219
0.00296048
0.00335441
0.00368346
0.00396248
0.00419655
0.00438398
0.00451701
0.00458359
0.00457198
0.00447803
0.00431343
0.00410806
0.00390109
0.00372458
0.00359268
0.00350329
0.00344668
0.00341235
0.0033922
0.0033816
0.0033763
0.00143623
0.0020116
0.002511
0.00295047
0.00332342
0.00364444
0.00392121
0.00415667
0.0043487
0.00448968
0.00456765
0.0045701
0.0044909
0.00433862
0.00414009
0.00393337
0.00375214
0.00361354
0.00351787
0.00345637
0.00341865
0.00339589
0.00338339
0.00337692
0.00160766
0.00209746
0.00253521
0.0029338
0.00328922
0.00360303
0.00387795
0.00411521
0.00431239
0.00446217
0.00455282
0.00457132
0.00450964
0.00437285
0.00418389
0.00397873
0.00379229
0.00364512
0.00354072
0.00347198
0.00342876
0.00340238
0.00338665
0.00337805
0.00172268
0.00214629
0.00253867
0.0029091
0.00325035
0.00355809
0.00383175
0.0040713
0.00427414
0.00443338
0.00453773
0.00457394
0.0045323
0.00441429
0.00423824
0.00403699
0.0038458
0.00368874
0.00357333
0.00349488
0.00344397
0.00341175
0.00339188
0.00338
0.00178788
0.00216677
0.00252671
0.00287589
0.00320557
0.00350838
0.00378152
0.00402392
0.00423293
0.00440214
0.00452092
0.00457612
0.00455668
0.00446064
0.00430135
0.00410735
0.00391311
0.00374575
0.00361735
0.00352662
0.00346554
0.00342532
0.00339934
0.00338302
0.00182476
0.00216848
0.00250236
0.00283396
0.00315383
0.00345271
0.00372608
0.00397197
0.00418764
0.00436724
0.00450093
0.00457596
0.00458038
0.00450922
0.00437073
0.00418828
0.00399407
0.00381726
0.00367461
0.00356914
0.00349509
0.00344426
0.00340989
0.00338735
0.00184319
0.00215698
0.00246765
0.00278331
0.00309432
0.00339001
0.0036643
0.00391429
0.00413711
0.00432744
0.00447629
0.0045716
0.00460102
0.00455711
0.00444335
0.00427739
0.00408768
0.00390388
0.00374687
0.0036246
0.00353461
0.00347005
0.00342461
0.00339354
0.00184911
0.00213588
0.00242424
0.00272416
0.00302647
0.00331931
0.00359504
0.0038497
0.00408014
0.00428146
0.00444557
0.00456126
0.00461623
0.00460126
0.00451569
0.00437133
0.00419171
0.00400511
0.00383528
0.00369509
0.00358633
0.00350459
0.00344475
0.00340216
0.00184634
0.0021079
0.00237373
0.00265706
0.00295
0.00323984
0.00351725
0.00377701
0.00401548
0.00422803
0.00440737
0.00454326
0.00462379
0.00463868
0.00458389
0.00446587
0.00430247
0.00411884
0.00393968
0.00378201
0.00365237
0.00354992
0.00347174
0.00341373
0.00183754
0.00207532
0.00231782
0.00258287
0.002865
0.00315105
0.00342998
0.00369506
0.00394187
0.00416583
0.0043603
0.00451598
0.00462164
0.0046665
0.00464408
0.00455619
0.00441495
0.00424103
0.00405798
0.00388536
0.0037342
0.00360795
0.00350704
0.00342873
0.00182459
0.00204015
0.00225842
0.00250291
0.00277196
0.00305269
0.00333245
0.00360273
0.00385802
0.00409348
0.00430293
0.00447789
0.00460789
0.00468215
0.00469258
0.00463731
0.00452326
0.00436588
0.00418578
0.00400297
0.00383171
0.00367981
0.00355188
0.00344755
0.00180868
0.00200418
0.00219761
0.00241898
0.00267191
0.00294495
0.00322416
0.00349904
0.00376266
0.00400958
0.00423378
0.00442743
0.0045808
0.00468338
0.00472616
0.00470461
0.00462122
0.00448635
0.00431642
0.00412989
0.00394238
0.00376501
0.00360672
0.00347027
0.00179025
0.00196892
0.00213756
0.00233332
0.0025665
0.00282858
0.003105
0.00338325
0.00365464
0.00391276
0.00415138
0.00436307
0.00453875
0.00466827
0.00474218
0.00475412
0.00470316
0.00459506
0.00444174
0.00425857
0.00406055
0.00386041
0.00367033
0.00349625
0.00176875
0.00193553
0.00208029
0.00224851
0.00245805
0.00270503
0.00297544
0.00325502
0.00353305
0.00380172
0.00405426
0.00428331
0.0044802
0.00463516
0.00473854
0.00478278
0.00476437
0.00468533
0.00455324
0.00437976
0.0041777
0.00395956
0.00373888
0.00352353
0.00174074
0.00190515
0.00202729
0.00216718
0.00234948
0.00257662
0.00283677
0.00311463
0.00339736
0.00367543
0.00394108
0.00418669
0.00440372
0.00458262
0.00471365
0.0047884
0.00480146
0.00475186
0.00464343
0.00448407
0.00428367
0.00405309
0.00380529
0.00354804
0.00170329
0.00187509
0.00197848
0.00209142
0.00224406
0.00244649
0.00269121
0.00296317
0.00324772
0.0035333
0.00381081
0.00407193
0.00430797
0.00450939
0.0046663
0.00476958
0.00481235
0.00479121
0.00470686
0.00456374
0.00436867
0.00413025
0.00385965
0.003563
0.00166262
0.00183466
0.00193147
0.00202215
0.00214485
0.00231847
0.00254208
0.00280284
0.00308515
0.00337543
0.00366286
0.00393807
0.00419185
0.00441442
0.00459559
0.00472554
0.00479607
0.00480175
0.00474055
0.00461378
0.0044253
0.00418131
0.0038909
0.00355899
0.0016162
0.00177656
0.00188413
0.00195893
0.00205413
0.00219659
0.00239363
0.00263706
0.00291184
0.00320286
0.00349741
0.00378471
0.00405467
0.004297
0.00450097
0.00465601
0.00475263
0.00478346
0.00474398
0.00463255
0.00445005
0.00420007
0.00388961
0.00352523
0.0015487
0.00169542
0.00183221
0.0018993
0.00197252
0.00208429
0.00225066
0.00247042
0.00273134
0.0030179
0.00331568
0.00361227
0.00389639
0.00415691
0.00438239
0.00456134
0.0046829
0.00473779
0.00471897
0.00462183
0.00444398
0.00418571
0.00385104
0.00345197
0.00143361
0.00158588
0.00176618
0.00183772
0.00189816
0.00198343
0.0021177
0.00230835
0.00254857
0.00282429
0.00312019
0.00342228
0.00371786
0.00399474
0.00424056
0.00444271
0.00458892
0.00466788
0.00466994
0.00458725
0.0044136
0.00414453
0.00377828
0.00333362
0.00123743
0.00142956
0.0016706
0.00176534
0.00182614
0.0018933
0.00199788
0.00215631
0.00236946
0.00262724
0.00291496
0.00321761
0.00352113
0.00381212
0.00407717
0.00430254
0.00447445
0.00457957
0.00460549
0.00454081
0.00437462
0.00409539
0.00368978
0.00317478
0.000887643
0.00121535
0.00151516
0.00167304
0.0017488
0.00180994
0.00189169
0.00201852
0.0022002
0.00243312
0.0027055
0.00300259
0.00330947
0.00361169
0.00389487
0.00414432
0.00434509
0.00448222
0.00454101
0.00450687
0.00436425
0.00409401
0.00366559
0.00302886
0.000425547
0.000842983
0.00123746
0.00152687
0.001649
0.00172363
0.00179516
0.0018962
0.00204571
0.00224854
0.0024984
0.00278285
0.00308728
0.00339677
0.00369644
0.00397129
0.00420621
0.00438632
0.00449724
0.00452554
0.00446121
0.00430971
0.00412232
0.00400612
1.07267e-06
5.62775e-06
1.82384e-05
3.90186e-05
6.15784e-05
9.77889e-05
3.43072e-05
7.5579e-05
0.000136874
0.000195634
0.000238209
0.000268073
0.000190414
0.000149439
0.000254458
0.000340266
0.000392009
0.000407991
4.85235e-05
0.000198751
0.000343109
0.000447816
0.000510718
0.00053382
5.2868e-05
0.000237858
0.000411603
0.000530721
0.000605287
0.000642543
5.59975e-05
0.000271937
0.000464674
0.000594937
0.000680844
0.000731524
5.83216e-05
0.000302437
0.000507269
0.000646
0.000742091
0.000804843
6.00743e-05
0.000329495
0.00054151
0.000686733
0.000791729
0.000864778
6.13931e-05
0.000352855
0.000568128
0.000718498
0.000831375
0.000913231
6.23648e-05
0.000371696
0.000587235
0.000741936
0.00086221
0.000952003
6.30548e-05
0.000384914
0.000598748
0.000757325
0.000885208
0.000983436
6.34984e-05
0.000391666
0.000602522
0.000764674
0.000900738
0.00100858
6.35802e-05
0.000392443
0.000598268
0.000763468
0.000908622
0.00102715
6.33198e-05
0.00038781
0.000586141
0.000754065
0.000908229
0.00103971
6.26646e-05
0.000377592
0.00056566
0.000735455
0.000899026
0.00104591
6.15941e-05
0.000361557
0.000536664
0.000706659
0.000879077
0.00104399
6.00772e-05
0.000339435
0.000499142
0.000666414
0.000846018
0.00103099
5.80719e-05
0.000310988
0.000452814
0.00061338
0.000796216
0.00100466
5.54806e-05
0.000275977
0.000397541
0.000546695
0.000726357
0.000959841
5.21734e-05
0.000233962
0.000333583
0.00046572
0.000634322
0.000881775
4.79812e-05
0.000184291
0.000261716
0.000370236
0.000518371
0.000753902
0.000187075
0.000126252
0.000182041
0.000262674
0.000380659
0.000564882
3.3633e-05
5.90314e-05
9.36992e-05
0.000148756
0.000230471
0.000321845
1.00547e-06
5.09572e-06
1.83642e-05
5.20492e-05
0.000112754
0.000199322
0.000256192
0.00063005
0.00101797
0.00133519
0.00153223
0.00163067
0.00170398
0.00178809
0.00190876
0.00207923
0.00230055
0.00256491
0.00285976
0.00317087
0.00348368
0.00378387
0.00405793
0.00429377
0.00448129
0.00461258
0.00468328
0.00469915
0.00468648
0.00469139
0.000191312
0.000486833
0.000812541
0.00112956
0.0014021
0.0015295
0.00161371
0.00169074
0.00178923
0.00192879
0.00211804
0.00235555
0.00263285
0.00293792
0.00325765
0.00357947
0.00389245
0.00418791
0.00445884
0.00469789
0.00489587
0.00504464
0.0051432
0.00522019
0.000264169
0.000420452
0.000666782
0.000966142
0.0012297
0.0014214
0.00152257
0.00160097
0.00168523
0.00179843
0.00195529
0.00216112
0.0024131
0.0027031
0.00302084
0.00335653
0.00370246
0.00405285
0.00440108
0.00473504
0.00503545
0.00527169
0.00545434
0.00556623
0.000438534
0.0004298
0.00058301
0.000826364
0.00108063
0.00130656
0.00143191
0.00151608
0.00159343
0.00168677
0.00181416
0.00198654
0.00220712
0.00247298
0.00277803
0.00311628
0.0034838
0.00387754
0.00429005
0.00470306
0.00508182
0.00538547
0.00563273
0.00576655
0.000615014
0.000491591
0.000583934
0.000718079
0.00093978
0.00116309
0.00133463
0.00143094
0.00150899
0.00159019
0.00169379
0.0018344
0.00202054
0.00225485
0.00253633
0.00286362
0.00323715
0.0036571
0.00411605
0.00459082
0.00502771
0.00539502
0.00568938
0.0058459
0.000741014
0.000609677
0.000621786
0.000678656
0.00084001
0.0010384
0.00122472
0.00134285
0.00142769
0.00150421
0.00159111
0.00170463
0.00185691
0.00205543
0.0023043
0.00260709
0.00296897
0.0033943
0.00387778
0.00439444
0.00487699
0.00529781
0.00563095
0.00581369
0.00083541
0.000747559
0.000698452
0.000696934
0.000780183
0.000936632
0.00110981
0.00124758
0.00134442
0.0014233
0.00150127
0.00159453
0.001717
0.00187948
0.00209029
0.00235748
0.00269078
0.00309948
0.00358308
0.00411916
0.00463475
0.00509754
0.00546204
0.00567545
0.000911073
0.000869099
0.000793685
0.000768827
0.000760603
0.000869962
0.0010131
0.00114776
0.00125702
0.00134315
0.00141913
0.00149964
0.00159871
0.0017287
0.00190055
0.00212548
0.00241682
0.00278873
0.00324746
0.00377772
0.0043113
0.00480219
0.00518992
0.00543754
0.000972372
0.000963662
0.000897483
0.000846638
0.000810817
0.000833276
0.000943018
0.00106092
0.00117035
0.00126218
0.00134017
0.00141462
0.0014977
0.0016015
0.00173784
0.0019193
0.00216115
0.002481
0.00289212
0.00338965
0.00392232
0.00442168
0.00483725
0.00510322
0.00102136
0.00103562
0.000991605
0.000931745
0.000895924
0.000846575
0.000897576
0.000992626
0.0010911
0.00118288
0.00126292
0.00133545
0.00140907
0.00149401
0.00160125
0.00174305
0.00193455
0.00219449
0.00254121
0.00298063
0.00349079
0.00397762
0.00441202
0.00469064
0.00106143
0.00109138
0.00107012
0.00101986
0.00098011
0.000919566
0.000894806
0.00094773
0.00102625
0.00110996
0.00118874
0.00126037
0.00132885
0.0014015
0.00148718
0.00159647
0.00174267
0.00194317
0.00221814
0.00258289
0.00303365
0.00350316
0.00393059
0.0042185
0.00109524
0.00113643
0.00113337
0.00110024
0.00105592
0.00101223
0.000945428
0.000942041
0.00098627
0.0010519
0.0011227
0.00119084
0.00125538
0.00132004
0.00139088
0.00147583
0.00158538
0.00173373
0.00193922
0.00222104
0.00258833
0.00301968
0.00341628
0.00371315
0.00112381
0.00117466
0.00118478
0.00116758
0.00113105
0.00109636
0.00102695
0.000984969
0.000986966
0.00102119
0.00107362
0.00113217
0.00119066
0.00124843
0.00130878
0.00137651
0.0014587
0.00156576
0.00171195
0.00191511
0.00219199
0.0025457
0.00291407
0.00319477
0.00114938
0.00120883
0.00122831
0.00122418
0.00120224
0.00116817
0.00112362
0.00105664
0.00102928
0.00103029
0.00105525
0.00109507
0.00114145
0.00119009
0.0012406
0.00129531
0.00135799
0.00143485
0.00153555
0.00167343
0.00186487
0.00212381
0.00244303
0.00269729
0.00117149
0.00124058
0.0012672
0.00127305
0.00126379
0.00123948
0.00120865
0.00114957
0.00110651
0.00108268
0.00107907
0.00109342
0.00112003
0.00115372
0.00119184
0.00123384
0.00128081
0.00133581
0.0014041
0.00149378
0.00161645
0.00178731
0.00201889
0.00225254
0.0011898
0.001271
0.00130386
0.0013173
0.00131889
0.00130807
0.00128464
0.00125053
0.00120176
0.00116904
0.00114647
0.00113696
0.00114001
0.0011531
0.00117371
0.00120002
0.00123128
0.00126809
0.00131255
0.00136855
0.00144229
0.00154353
0.00168836
0.00187749
0.00120305
0.00130059
0.00134005
0.00135958
0.00137002
0.00137095
0.00136058
0.00134131
0.00130719
0.00127526
0.00124642
0.00122263
0.00120643
0.00119862
0.00119881
0.00120602
0.00121918
0.00123772
0.00126186
0.00129283
0.00133305
0.00138661
0.00146324
0.00159471
0.00120873
0.00132907
0.00137688
0.00140197
0.00141959
0.00143039
0.00143225
0.00142478
0.00140902
0.00138489
0.00135989
0.00133348
0.00130833
0.00128668
0.00126997
0.00125882
0.00125321
0.00125283
0.00125744
0.00126709
0.00128233
0.00130435
0.00133407
0.00141202
0.00120405
0.00135492
0.00141447
0.00144578
0.00146982
0.00148831
0.00149982
0.0015032
0.00149863
0.00148701
0.00146939
0.00144776
0.00142306
0.00139731
0.00137232
0.0013495
0.00132975
0.00131353
0.00130103
0.00129229
0.00128731
0.00128678
0.00128676
0.00132411
0.00118686
0.00137457
0.00145136
0.00149077
0.00152203
0.00154754
0.00156612
0.00157685
0.00157999
0.00157607
0.00156555
0.00154986
0.00152978
0.00150636
0.00148064
0.00145418
0.00142828
0.00140353
0.00138033
0.00135915
0.00133989
0.00132352
0.00130624
0.00131752
0.0011528
0.00138231
0.00148384
0.00153362
0.00157459
0.00160895
0.00163478
0.00165128
0.00165844
0.00165838
0.00165128
0.00163817
0.00162027
0.00159839
0.00157424
0.00154879
0.00152304
0.00149786
0.00147295
0.00144826
0.00142436
0.00140095
0.00137473
0.00137073
0.00109449
0.00137668
0.00150574
0.00156654
0.00161976
0.00166696
0.00170406
0.00172903
0.00174129
0.00174436
0.00173876
0.00172599
0.00170772
0.00168535
0.00166019
0.00163323
0.00160517
0.00157696
0.00155036
0.00152639
0.00150551
0.00148995
0.00148035
0.00148608
0.00100046
0.00135702
0.00150915
0.00157756
0.00164085
0.00170056
0.00175338
0.00179507
0.00181904
0.00183144
0.00183384
0.00182599
0.00181008
0.00178808
0.00176194
0.00173342
0.00170404
0.00167513
0.00164778
0.00162279
0.00160087
0.00158281
0.00157188
0.00157546
0.000901423
0.00132854
0.00148657
0.00154947
0.00161126
0.00167327
0.00173514
0.0017875
0.00181951
0.00184992
0.00187045
0.00188021
0.00188075
0.0018735
0.00186018
0.00184242
0.00182179
0.00179972
0.00177755
0.00175656
0.00173805
0.00172344
0.00171437
0.00171207
7.80012e-07
4.65898e-06
2.53192e-05
6.35258e-05
0.000119877
0.000200385
2.74154e-05
2.56528e-05
8.45623e-05
0.000159071
0.000263815
0.000427371
0.000165192
6.53308e-05
0.00016537
0.000274481
0.000429205
0.000651852
0.00018575
0.000109032
0.000240279
0.000379645
0.000568744
0.000801773
0.000199926
0.000151538
0.000304977
0.000467802
0.000670782
0.000876137
4.8427e-05
0.000189721
0.000358853
0.000536733
0.000737881
0.000904084
5.00183e-05
0.000223082
0.000402273
0.000588223
0.000774315
0.000908851
5.11204e-05
0.000250271
0.000436125
0.000622514
0.000790156
0.00090017
5.18667e-05
0.000270856
0.000460413
0.000642745
0.000792637
0.000883184
5.2299e-05
0.000285129
0.000476212
0.000651387
0.000786284
0.000861168
5.24278e-05
0.000293017
0.000484276
0.000650871
0.00077306
0.000836054
5.23249e-05
0.000294698
0.000485073
0.000642925
0.000754041
0.000808252
5.20128e-05
0.000289561
0.000478925
0.000628582
0.00072988
0.000777386
5.15814e-05
0.000277571
0.000466083
0.000608419
0.000700856
0.000742364
5.10035e-05
0.000260012
0.000446876
0.000582784
0.000666839
0.000701906
5.0251e-05
0.000238445
0.000421926
0.000551931
0.00062755
0.000654549
4.92721e-05
0.000215001
0.000392408
0.00051608
0.000583051
0.000600057
4.77399e-05
0.000193635
0.000360286
0.000475173
0.000533698
0.000540362
0.000197073
0.000187563
0.000327828
0.000428507
0.000479381
0.000474066
0.000189556
0.000177444
0.000291977
0.000374709
0.000418713
0.000400845
0.000178488
0.000157862
0.00024526
0.000310138
0.000348024
0.000326633
0.000163604
0.000119902
0.000180947
0.00022947
0.000261804
0.00025145
2.90172e-05
5.73555e-05
9.24674e-05
0.000125211
0.00014781
0.000175059
9.06576e-07
3.27852e-06
8.04147e-06
1.61507e-05
2.62605e-05
4.95579e-05
0.000926853
0.00130393
0.00143524
0.00148638
0.00154274
0.00160317
0.00166902
0.00173086
0.00177199
0.00181388
0.00184935
0.00187315
0.00188709
0.00189285
0.00189195
0.00188584
0.00187592
0.00186349
0.0018498
0.0018361
0.00182373
0.0018141
0.00180859
0.00180797
0.0010052
0.00127569
0.00136163
0.00139635
0.00143733
0.00148558
0.00154131
0.00160149
0.00164694
0.00169227
0.00173724
0.00177704
0.00181066
0.00183724
0.00185699
0.00187113
0.00188037
0.00188551
0.00188744
0.00188712
0.00188566
0.00188434
0.0018839
0.00188548
0.00105417
0.00123075
0.00126925
0.00127891
0.00129696
0.00132543
0.00136276
0.00140973
0.00145381
0.00149214
0.00153647
0.00158002
0.00162225
0.00166286
0.0017011
0.001736
0.00176759
0.00179597
0.0018212
0.00184333
0.00186252
0.00187894
0.00189348
0.00190681
0.00106545
0.00116861
0.00116438
0.00114589
0.00113781
0.00114342
0.0011624
0.00119378
0.00123199
0.00128158
0.00133909
0.00139657
0.00145217
0.00150228
0.00154712
0.00158717
0.00162273
0.00165419
0.00168208
0.00170694
0.00172928
0.0017493
0.00176655
0.00178368
0.00105305
0.00109468
0.0010559
0.00100942
0.000975217
0.000957736
0.000958698
0.000980124
0.00102142
0.00107103
0.00112324
0.00117955
0.00123963
0.00129999
0.0013572
0.00141138
0.00146183
0.00150794
0.0015494
0.00158627
0.00161868
0.00164702
0.00167031
0.00169252
0.00102418
0.00101932
0.000952125
0.000880266
0.000822038
0.000783492
0.000768674
0.000768008
0.000775515
0.000796221
0.000829763
0.000874536
0.000926977
0.000983525
0.0010411
0.00109753
0.0011514
0.00120173
0.00124782
0.00128932
0.00132586
0.00135832
0.00138326
0.00141109
0.000986151
0.000948998
0.000860158
0.000768195
0.000692686
0.000639043
0.000604012
0.000570833
0.000556413
0.000560104
0.000578887
0.00061217
0.000654009
0.000701736
0.000751713
0.000801375
0.000849049
0.000893471
0.000933342
0.000968311
0.000997002
0.00102174
0.00103553
0.00105193
0.000945838
0.000887969
0.00078553
0.000685106
0.000605319
0.000545881
0.000503283
0.000448429
0.000438317
0.000457518
0.000501527
0.000555756
0.000612397
0.000663361
0.000708153
0.000747263
0.000781154
0.000810478
0.000835231
0.000855293
0.000870073
0.000882226
0.000885142
0.000898117
0.000907313
0.000837868
0.000729055
0.000624538
0.000544116
0.000490748
0.00044634
0.000401743
0.000411827
0.000458556
0.000524038
0.000591682
0.000654582
0.000713598
0.000768925
0.000820652
0.000868
0.000910557
0.000949546
0.00098586
0.00101889
0.00105044
0.00108083
0.00114316
0.000871879
0.000797563
0.000688102
0.00057913
0.000501521
0.00046132
0.000398926
0.000386972
0.000421758
0.000486364
0.000559349
0.000633956
0.000707916
0.000781266
0.000855824
0.00093328
0.00101339
0.00109384
0.00117146
0.00124933
0.00133425
0.00142592
0.00154378
0.0016897
0.000838701
0.000762653
0.000654146
0.000541136
0.000466131
0.000431577
0.000373559
0.000389958
0.000457466
0.000544982
0.000642701
0.000739649
0.000832458
0.000921657
0.00100896
0.00109784
0.0011935
0.00130168
0.0014272
0.00157278
0.0017374
0.00193453
0.00217173
0.00236584
0.000805131
0.000726202
0.000618171
0.000499423
0.000439662
0.000381232
0.0003632
0.000428597
0.000526546
0.000645149
0.000771294
0.000898453
0.00102592
0.00115372
0.00128098
0.00140671
0.00153211
0.00166317
0.0018115
0.00199219
0.00221692
0.00252295
0.00283027
0.00303025
0.000766983
0.000679164
0.000564987
0.000444211
0.000413688
0.00035134
0.000397002
0.000497992
0.000629487
0.00077337
0.0009196
0.00106662
0.0012166
0.00137205
0.00153595
0.00171156
0.0019021
0.00211123
0.00234484
0.00261214
0.00292508
0.00324715
0.003504
0.00372541
0.000720807
0.000619912
0.000493092
0.000416077
0.000360083
0.000361664
0.000458834
0.000595781
0.000755927
0.000923425
0.00109388
0.00126518
0.00143601
0.00160786
0.00178573
0.0019783
0.00219755
0.00245697
0.00276736
0.00312943
0.00352557
0.00387562
0.00416563
0.00441068
0.000665867
0.000556416
0.000411224
0.000378114
0.000331227
0.000416021
0.00055003
0.000720805
0.000906333
0.00110048
0.00130033
0.00150369
0.00171012
0.00192094
0.00213981
0.00237383
0.00263434
0.00293538
0.00328742
0.00368699
0.00409076
0.00444504
0.00477019
0.00496777
0.000597795
0.000480433
0.000371279
0.00032944
0.000364269
0.000491226
0.000664198
0.000865564
0.00108099
0.00130462
0.00153204
0.00176198
0.00199654
0.00224048
0.00250051
0.00278506
0.00310357
0.00346371
0.00386516
0.00429239
0.00467959
0.00501869
0.0053232
0.00547641
0.000520169
0.00038833
0.000332557
0.000314074
0.00042618
0.000594814
0.000805525
0.00103559
0.00127847
0.0015286
0.00178224
0.00203835
0.00229902
0.00256948
0.00285785
0.00317437
0.00352895
0.00392602
0.00435741
0.00479808
0.0051745
0.00551803
0.00579469
0.00592931
0.000442511
0.000313755
0.00029822
0.000341514
0.000511635
0.00072262
0.000963818
0.0012243
0.00149707
0.00177504
0.00205444
0.0023356
0.00262187
0.00291873
0.00323346
0.0035746
0.00394953
0.00435902
0.00479084
0.00521309
0.00556898
0.00589458
0.00613239
0.00625267
0.000356386
0.000281762
0.000284523
0.000409229
0.000632859
0.000879287
0.00114902
0.00143836
0.00173704
0.00203743
0.00233731
0.0026385
0.00294503
0.00326202
0.00359537
0.00395113
0.00433311
0.00473832
0.00515209
0.00554383
0.00586542
0.00615759
0.00635892
0.00646503
0.000236411
0.000260436
0.000301084
0.000506628
0.000771453
0.00104282
0.00134628
0.00166649
0.00198925
0.00230873
0.00262528
0.00294207
0.00326296
0.00359188
0.00393267
0.00428865
0.00466074
0.00504378
0.00542303
0.00577471
0.00605303
0.00630276
0.00647045
0.00656273
0.000149811
0.000252965
0.000358189
0.000627252
0.000930082
0.00124092
0.00157637
0.00191717
0.00225407
0.00258537
0.00291302
0.00323997
0.00356881
0.00390136
0.00423877
0.00458144
0.00492788
0.0052723
0.00560215
0.00589883
0.00613069
0.00632478
0.00645865
0.00653593
0.000141534
0.000263205
0.000458593
0.000796505
0.00110896
0.00145494
0.00181339
0.00216971
0.00251801
0.0028584
0.00319335
0.00352525
0.00385523
0.00418292
0.00450672
0.00482418
0.00513176
0.00542368
0.00569036
0.00591874
0.00609402
0.00621911
0.00631171
0.00636919
0.000158083
0.000310175
0.000623277
0.000977437
0.00132214
0.00169208
0.00206442
0.00242839
0.0027816
0.00312551
0.00346233
0.00379322
0.00411745
0.0044323
0.00473353
0.00501609
0.0052746
0.00550318
0.00569482
0.00584156
0.00593756
0.00598392
0.00601027
0.00603637
0.000172402
0.000398369
0.00079969
0.00116358
0.00154907
0.00193554
0.00231422
0.00268135
0.00303635
0.00338055
0.00371521
0.00404007
0.00435257
0.00464791
0.00491962
0.00516049
0.00536343
0.00552189
0.00562979
0.00568185
0.00567602
0.00561954
0.00554232
0.00550277
9.90444e-07
7.43059e-06
2.95453e-05
7.12519e-05
0.000143877
5.08652e-05
3.24583e-05
7.72511e-05
0.000154833
0.000246513
0.000352773
0.000398268
0.000184231
0.000150574
0.000262483
0.000374128
0.000491791
0.000634326
0.000198297
0.000203148
0.000333615
0.000451609
0.000574154
0.00071895
4.79972e-05
0.000237628
0.000376012
0.00049861
0.000608244
0.00075374
4.97065e-05
0.000259917
0.000399439
0.000520292
0.000618408
0.000795334
5.10375e-05
0.000274098
0.000411702
0.000524857
0.000629005
0.000824946
5.19851e-05
0.000283114
0.000416271
0.000518994
0.000643316
0.000851306
5.26022e-05
0.000288662
0.000415724
0.00051139
0.00065527
0.000879097
5.29445e-05
0.000291566
0.000411535
0.000504163
0.000664604
0.000906538
5.30667e-05
0.000292075
0.00040462
0.000496397
0.0006711
0.000931628
5.30315e-05
0.000290118
0.00039551
0.000486252
0.000674347
0.000952533
5.28698e-05
0.000285458
0.000384252
0.000472874
0.000673603
0.000967149
5.24686e-05
0.000277977
0.000370737
0.000455802
0.000667438
0.000973682
5.17607e-05
0.000267546
0.000354879
0.000435465
0.000653999
0.000971108
5.07272e-05
0.000254053
0.000336269
0.000410778
0.00063138
0.000958133
4.94063e-05
0.000237431
0.000314601
0.000381747
0.000597706
0.000933196
4.78473e-05
0.000217701
0.000289236
0.000348401
0.000551242
0.000894244
4.69666e-05
0.000194999
0.000258975
0.000310899
0.000490623
0.000838203
0.000191237
0.000170066
0.000222364
0.000269248
0.000415311
0.000759905
0.000178776
0.00013982
0.000178388
0.00022264
0.00032697
0.000650098
0.000162227
0.000100242
0.00012684
0.000167115
0.000231338
0.000493075
2.83909e-05
4.76822e-05
6.51027e-05
9.77362e-05
0.000137652
0.000272838
8.08813e-07
2.56683e-06
9.05079e-06
3.10653e-05
6.51455e-05
0.000101696
0.000227064
0.00065154
0.00109099
0.00144053
0.00180359
0.00218091
0.002558
0.00292511
0.00327922
0.00362055
0.00394929
0.00426373
0.00455965
0.00483053
0.00506824
0.0052641
0.00540981
0.00549799
0.00552207
0.00547617
0.00535661
0.00516763
0.00493336
0.00472274
0.000635507
0.00104766
0.00131197
0.00163407
0.00200994
0.00240205
0.00278639
0.00315486
0.00350671
0.00384276
0.00416258
0.00446326
0.0047392
0.00498265
0.00518459
0.00533587
0.00542817
0.0054544
0.00540826
0.00528255
0.00506617
0.0047393
0.00426222
0.00357053
0.000850842
0.00115083
0.00144923
0.00181622
0.00221727
0.0026185
0.00300407
0.00337009
0.00371702
0.00404541
0.00435386
0.0046383
0.0048921
0.0051068
0.00527328
0.00538303
0.00542909
0.00540655
0.00531217
0.00514311
0.00489486
0.00455873
0.00411926
0.00354214
0.000958409
0.00126419
0.00160461
0.00199979
0.00241428
0.00281989
0.00320489
0.00356726
0.00390789
0.0042269
0.00452205
0.00478836
0.00501847
0.00520375
0.00533563
0.00540695
0.00541302
0.00535191
0.00522395
0.00503048
0.00477192
0.004446
0.00404642
0.00355229
0.00103894
0.001366
0.00174799
0.00216894
0.00259524
0.00300412
0.00338759
0.00374521
0.00407817
0.00438618
0.00466628
0.00491272
0.00511775
0.0052729
0.00537055
0.00540546
0.00537567
0.00528263
0.00513036
0.00492377
0.00466634
0.00435856
0.00399863
0.00357188
0.0010906
0.00146016
0.00188002
0.00232343
0.00275949
0.00317042
0.00355132
0.00390308
0.00422706
0.00452257
0.00478596
0.00501093
0.00518949
0.0053136
0.00537697
0.00537651
0.00531318
0.00519174
0.00501942
0.00480389
0.00455067
0.00426224
0.00394021
0.00357499
0.00114205
0.00155038
0.0020015
0.00246316
0.00290677
0.00331843
0.00369572
0.00404052
0.00435429
0.00463591
0.00488112
0.00508315
0.00523399
0.00532628
0.00535528
0.00532035
0.0052255
0.00507873
0.00489018
0.00466973
0.00442433
0.00415771
0.00387354
0.00356557
0.0011954
0.0016351
0.00211146
0.00258783
0.00303705
0.0034482
0.00382084
0.00415766
0.00446012
0.00472665
0.00495246
0.0051304
0.00525261
0.00531267
0.00530764
0.00523962
0.00511581
0.00494734
0.00474694
0.00452611
0.0042925
0.0040502
0.00380352
0.00354805
0.00124764
0.00171268
0.00220947
0.0026976
0.00315068
0.00356012
0.00392713
0.00425507
0.0045453
0.00479583
0.00500135
0.00515446
0.00524764
0.00527559
0.00523754
0.00513852
0.00498906
0.00480327
0.00459597
0.00437954
0.00416147
0.00394524
0.00373471
0.00352621
0.00129612
0.00178162
0.0022952
0.00279278
0.00324818
0.00365482
0.00401536
0.00433368
0.00461104
0.00484497
0.00502974
0.00515778
0.00522205
0.00521867
0.00514929
0.00502212
0.00485103
0.00465286
0.00444384
0.00423636
0.00403682
0.0038474
0.00367062
0.00350294
0.00133838
0.00184064
0.00236849
0.00287378
0.00333022
0.00373312
0.00408652
0.00439473
0.00465886
0.00487601
0.00504
0.00514324
0.00517931
0.00514598
0.00504761
0.00489579
0.00470766
0.0045023
0.00429658
0.00410191
0.00392285
0.00375975
0.00361342
0.00348023
0.00137282
0.00188909
0.00242928
0.00294107
0.00339755
0.00379601
0.00414181
0.00443969
0.00469057
0.00489112
0.00503479
0.00511399
0.0051231
0.00506178
0.00493732
0.00476482
0.0045645
0.00435705
0.00415902
0.00397997
0.00382212
0.00368377
0.00356405
0.00345928
0.00139862
0.00192689
0.00247749
0.0029952
0.003451
0.00384453
0.00418253
0.00447013
0.00470809
0.00489262
0.00501685
0.00507326
0.00505715
0.00497025
0.00482302
0.00463408
0.00442637
0.0042214
0.00403448
0.00387265
0.00373556
0.00361963
0.00352254
0.00344076
0.00141508
0.00195412
0.00251297