/*--------------------------------*- C++ -*----------------------------------*\
  =========                 |
  \\      /  F ield         | OpenFOAM: The Open Source CFD Toolbox
   \\    /   O peration     | Website:  https://openfoam.org
    \\  /    A nd           | Version:  11
     \\/     M anipulation  |
\*---------------------------------------------------------------------------*/
FoamFile
{
    format      ascii;
    class       volScalarField;
    location    "2";
    object      p;
}
// * * * * * * * * * * * * * * * * * * * * * * * * * * * * * * * * * * * * * //

dimensions      [0 2 -2 0 0 0 0];

internalField   nonuniform List<scalar> 
2880
(
1.06761
1.0399
1.00944
0.976607
0.968994
0.979335
1.07523
1.0433
1.01425
0.981174
0.970296
0.97273
1.08484
1.04944
1.02068
0.987578
0.972558
0.964567
1.08003
1.0546
1.02565
0.993169
0.974766
0.959063
1.07362
1.05698
1.02836
0.996763
0.97523
0.954012
1.07127
1.05749
1.02933
0.998544
0.973899
0.948542
1.06943
1.05713
1.02921
0.998943
0.971304
0.94268
1.06682
1.05638
1.0284
0.998323
0.967848
0.936459
1.06379
1.05566
1.02724
0.996976
0.963731
0.929805
1.06102
1.05532
1.02604
0.99513
0.959073
0.922608
1.05909
1.05566
1.02505
0.992976
0.953956
0.914728
1.05835
1.05694
1.02446
0.99069
0.948409
0.905996
1.05905
1.05929
1.02443
0.988432
0.942432
0.896211
1.06134
1.06255
1.02515
0.986301
0.936013
0.885143
1.06506
1.06699
1.02663
0.98446
0.929127
0.872516
1.06998
1.07241
1.02889
0.98302
0.921768
0.858019
1.07574
1.07847
1.03188
0.982074
0.913983
0.841227
1.08182
1.08469
1.03544
0.981661
0.90587
0.821731
1.08765
1.09054
1.03933
0.981811
0.897492
0.799337
1.09265
1.09554
1.04332
0.982832
0.889117
0.774225
1.09643
1.09958
1.04776
0.985912
0.882139
0.747685
1.09931
1.10351
1.05422
0.993022
0.879972
0.72259
1.10247
1.10836
1.06371
1.00317
0.884804
0.694681
1.10568
1.11188
1.07031
1.00489
0.885404
0.678033
0.954457
0.903804
0.862709
0.825855
0.793904
0.766253
0.742312
0.721636
0.703905
0.688858
0.676265
0.665886
0.657434
0.650564
0.644923
0.640214
0.636253
0.632955
0.630289
0.628232
0.626765
0.625887
0.625568
0.625565
0.938944
0.895062
0.856752
0.821406
0.79024
0.76308
0.739473
0.719042
0.701487
0.686559
0.674041
0.663707
0.655283
0.648442
0.642833
0.638163
0.63424
0.630974
0.628328
0.626273
0.624797
0.623984
0.623906
0.623843
0.93017
0.889447
0.851712
0.816882
0.786014
0.759054
0.735599
0.715288
0.69782
0.682944
0.670447
0.66011
0.651674
0.644825
0.639223
0.634572
0.630674
0.62743
0.624794
0.622718
0.621213
0.620534
0.62093
0.620706
0.923642
0.884193
0.846516
0.811833
0.781018
0.754073
0.730636
0.710346
0.692889
0.678008
0.665483
0.655102
0.646617
0.639727
0.634104
0.629451
0.625564
0.622333
0.619696
0.617579
0.61603
0.615563
0.616664
0.616165
0.917481
0.878321
0.840604
0.805942
0.775059
0.748021
0.724509
0.704164
0.68666
0.671727
0.659137
0.648679
0.640112
0.633153
0.627483
0.622809
0.618918
0.615691
0.613044
0.610873
0.609275
0.609108
0.611152
0.610182
0.911012
0.871638
0.833776
0.799028
0.767989
0.740782
0.71713
0.696678
0.679084
0.664066
0.651385
0.640826
0.632155
0.625102
0.619363
0.614647
0.610736
0.6075
0.604833
0.602587
0.600897
0.601012
0.604237
0.603029
0.904043
0.864111
0.825937
0.790961
0.759678
0.732242
0.708404
0.687808
0.6701
0.654979
0.642194
0.631521
0.622733
0.61557
0.609743
0.604965
0.601015
0.597752
0.595042
0.592683
0.590815
0.591105
0.595673
0.594772
0.896469
0.855646
0.816954
0.781604
0.749993
0.722279
0.698224
0.677466
0.659635
0.644408
0.631518
0.620734
0.611828
0.60455
0.598624
0.593773
0.589771
0.586467
0.583701
0.581205
0.57914
0.579662
0.585652
0.584682
0.888108
0.846063
0.806644
0.770786
0.73878
0.710754
0.68647
0.66555
0.647603
0.632285
0.619308
0.608429
0.599418
0.592033
0.58601
0.581083
0.577025
0.57368
0.570855
0.568219
0.565963
0.566778
0.574318
0.573066
0.878728
0.835116
0.794766
0.758297
0.725852
0.697505
0.673001
0.651941
0.633909
0.618532
0.605502
0.594561
0.585473
0.578004
0.5719
0.566904
0.562798
0.559415
0.556535
0.553761
0.551312
0.552436
0.561603
0.560023
0.868055
0.822492
0.781016
0.743867
0.710978
0.682336
0.657654
0.636505
0.61844
0.60306
0.590032
0.579079
0.569961
0.562444
0.556288
0.551246
0.547105
0.543697
0.540774
0.537872
0.535233
0.536665
0.547494
0.545573
0.855753
0.807798
0.765011
0.72716
0.693877
0.665015
0.640237
0.619083
0.601072
0.585771
0.572821
0.561928
0.552843
0.545334
0.539169
0.534114
0.529965
0.526554
0.52361
0.520602
0.517786
0.519516
0.532004
0.529752
0.841394
0.790532
0.746267
0.707753
0.674197
0.645258
0.620524
0.599498
0.581663
0.566555
0.553788
0.543049
0.534081
0.526653
0.520539
0.51552
0.511401
0.508019
0.505084
0.502004
0.499036
0.501049
0.515156
0.51262
0.824421
0.770061
0.724176
0.68512
0.651512
0.622727
0.598252
0.577544
0.560056
0.545294
0.532846
0.522385
0.513641
0.506385
0.500401
0.49548
0.491442
0.48813
0.485245
0.48214
0.479061
0.481342
0.496987
0.494256
0.804091
0.745596
0.697978
0.65861
0.625298
0.597021
0.573116
0.552993
0.53608
0.521862
0.50991
0.499878
0.491493
0.484525
0.478767
0.474024
0.470131
0.466942
0.464156
0.461083
0.457949
0.460482
0.477543
0.474759
0.779382
0.716134
0.666697
0.627419
0.594927
0.567665
0.544766
0.525588
0.50955
0.496132
0.484893
0.475482
0.46762
0.461081
0.455668
0.451202
0.447532
0.444531
0.441902
0.438927
0.435805
0.438573
0.456881
0.454246
0.748948
0.680339
0.629084
0.590567
0.559662
0.534116
0.51281
0.495052
0.480275
0.467974
0.457718
0.449158
0.442018
0.43608
0.431158
0.427089
0.423742
0.421006
0.418601
0.415798
0.412765
0.415742
0.435069
0.432854
0.710999
0.636216
0.583654
0.546925
0.518669
0.495768
0.476822
0.461093
0.448059
0.437266
0.428318
0.420884
0.414704
0.409572
0.405317
0.401794
0.39889
0.396517
0.394416
0.391869
0.389006
0.392145
0.412188
0.410765
0.662953
0.580984
0.528727
0.495282
0.471064
0.45199
0.436363
0.423417
0.412715
0.403898
0.396641
0.390657
0.385715
0.38163
0.378253
0.375456
0.373149
0.371262
0.369568
0.367374
0.364766
0.367984
0.388341
0.388262
0.601215
0.511134
0.462473
0.434386
0.41596
0.402161
0.391008
0.381747
0.374074
0.36778
0.362655
0.358492
0.355108
0.352352
0.350101
0.348252
0.346732
0.345493
0.344341
0.342626
0.340366
0.343513
0.363636
0.365826
0.521478
0.422451
0.382912
0.363047
0.352557
0.345742
0.340396
0.335853
0.332005
0.328853
0.326356
0.324425
0.322955
0.321846
0.321011
0.320374
0.319883
0.319509
0.319095
0.318047
0.316261
0.319064
0.338102
0.344341
0.41746
0.310387
0.28809
0.280394
0.280314
0.282385
0.284298
0.285588
0.286431
0.287095
0.287762
0.288507
0.289334
0.290219
0.291124
0.29201
0.292849
0.29363
0.294254
0.294207
0.293156
0.295091
0.311352
0.325396
0.270902
0.170994
0.176024
0.18591
0.19903
0.212009
0.222671
0.230933
0.237355
0.242534
0.246918
0.250791
0.254306
0.257538
0.260521
0.26327
0.265788
0.268089
0.270246
0.27178
0.272177
0.273003
0.283962
0.311978
0.0403571
0.0133451
0.050712
0.0813466
0.109726
0.135137
0.155789
0.172046
0.184887
0.195255
0.203895
0.21133
0.217896
0.223796
0.22916
0.234076
0.238616
0.242857
0.246865
0.250446
0.253087
0.256157
0.267885
0.288802
-0.541649
-0.526439
-0.528307
-0.544101
-0.570896
-0.643845
-0.545026
-0.531013
-0.536875
-0.555845
-0.580238
-0.642407
-0.550129
-0.537095
-0.546603
-0.566713
-0.585231
-0.61131
-0.547921
-0.541718
-0.554244
-0.574686
-0.59098
-0.608713
-0.547936
-0.545812
-0.560363
-0.580986
-0.597822
-0.612815
-0.550309
-0.550222
-0.565824
-0.58665
-0.605086
-0.619904
-0.553009
-0.554964
-0.570939
-0.591912
-0.611907
-0.628455
-0.555716
-0.559832
-0.575709
-0.596727
-0.618023
-0.636864
-0.558366
-0.564616
-0.580047
-0.600997
-0.623324
-0.644367
-0.560885
-0.569143
-0.583869
-0.604632
-0.627724
-0.650646
-0.563197
-0.573283
-0.587119
-0.607563
-0.631165
-0.655572
-0.565268
-0.576917
-0.58978
-0.609747
-0.63363
-0.659102
-0.567084
-0.580012
-0.59187
-0.611212
-0.635104
-0.661254
-0.568667
-0.582539
-0.593401
-0.612098
-0.635563
-0.662147
-0.570051
-0.584484
-0.594402
-0.612554
-0.635113
-0.661914
-0.571272
-0.585871
-0.594964
-0.612593
-0.634061
-0.660759
-0.572362
-0.586764
-0.595226
-0.612241
-0.632652
-0.658916
-0.57336
-0.58727
-0.595343
-0.611641
-0.631027
-0.656874
-0.574289
-0.587544
-0.595504
-0.611139
-0.629552
-0.655191
-0.574963
-0.587855
-0.595973
-0.611159
-0.628772
-0.654664
-0.574378
-0.588747
-0.59712
-0.612092
-0.629284
-0.656049
-0.573725
-0.591054
-0.599312
-0.614156
-0.631314
-0.659119
-0.575492
-0.593844
-0.602255
-0.616999
-0.634458
-0.664388
-0.576772
-0.595812
-0.603565
-0.616905
-0.638499
-0.703314
-0.298583
-0.165592
-0.0864805
-0.0305077
0.0149063
0.0531424
0.0843941
0.109348
0.129278
0.14542
0.158798
0.170178
0.180094
0.188898
0.196824
0.204037
0.210661
0.216793
0.222439
0.2273
0.231208
0.237371
0.253055
0.251443
-0.426351
-0.329991
-0.221746
-0.143219
-0.0822771
-0.0320492
0.00959752
0.0434897
0.0709211
0.0932776
0.111784
0.12742
0.140909
0.152752
0.16329
0.172744
0.18126
0.188919
0.195657
0.201105
0.205398
0.21284
0.229925
0.21799
-0.503892
-0.43211
-0.335133
-0.249807
-0.178607
-0.118298
-0.0672936
-0.0247325
0.0103179
0.0391551
0.0630806
0.0832184
0.100453
0.115432
0.128602
0.140248
0.150543
0.15957
0.167269
0.173332
0.178129
0.186243
0.203498
0.188709
-0.565906
-0.494964
-0.425661
-0.34703
-0.27184
-0.204174
-0.145105
-0.0945177
-0.0519882
-0.0165627
0.0129795
0.0378165
0.0589492
0.0771556
0.0929935
0.106829
0.118883
0.129273
0.137997
0.144876
0.15045
0.159138
0.176138
0.161609
-0.602862
-0.54955
-0.499797
-0.433611
-0.360515
-0.288701
-0.223025
-0.165197
-0.115486
-0.0734746
-0.0381816
-0.00847498
0.0167058
0.0382456
0.0568159
0.0728795
0.0867303
0.0985509
0.108422
0.116314
0.122859
0.132112
0.148728
0.136158
-0.624683
-0.599229
-0.561539
-0.509095
-0.443182
-0.370766
-0.300274
-0.236065
-0.179607
-0.131114
-0.0899959
-0.0552733
-0.0258909
-0.00088928
0.0205097
0.0388774
0.0546044
0.0679597
0.0791211
0.0881951
0.0958456
0.105684
0.121909
0.112364
-0.641293
-0.638825
-0.613717
-0.574544
-0.518275
-0.448905
-0.375826
-0.306328
-0.243664
-0.188905
-0.141963
-0.102115
-0.0683825
-0.0397744
-0.0154221
0.00535695
0.0230646
0.0380723
0.0506605
0.0610537
0.0699095
0.0803686
0.09623
0.0903524
-0.655295
-0.667603
-0.657324
-0.630906
-0.584627
-0.521266
-0.448243
-0.374909
-0.306762
-0.246087
-0.193429
-0.148416
-0.110222
-0.0778705
-0.0504298
-0.0271159
-0.00731295
0.00946145
0.0235934
0.0354098
0.0455436
0.0566735
0.0721969
0.0702623
-0.667119
-0.688207
-0.691877
-0.677589
-0.641684
-0.585684
-0.515543
-0.440282
-0.367678
-0.301624
-0.243515
-0.193423
-0.150743
-0.114564
-0.0839222
-0.0579572
-0.0359497
-0.0173087
-0.00154216
0.0117695
0.0232326
0.0350696
0.0502986
0.0523111
-0.676794
-0.70327
-0.717452
-0.713835
-0.688546
-0.640408
-0.575218
-0.500346
-0.424744
-0.354145
-0.291063
-0.236167
-0.189126
-0.14914
-0.11525
-0.0865592
-0.0622676
-0.0416878
-0.0242289
-0.00939324
0.00343497
0.016027
0.0310431
0.0367508
-0.684293
-0.714128
-0.734954
-0.739814
-0.723731
-0.683972
-0.624689
-0.552468
-0.475772
-0.401866
-0.334593
-0.2754
-0.224328
-0.180777
-0.143712
-0.112294
-0.0856951
-0.0631575
-0.0440008
-0.027644
-0.0134511
-5.64018e-05
0.0148474
0.0237614
-0.689603
-0.72129
-0.745568
-0.756005
-0.746659
-0.714784
-0.661735
-0.593754
-0.518108
-0.442589
-0.372178
-0.309725
-0.255364
-0.208274
-0.168431
-0.134483
-0.105669
-0.0812395
-0.060443
-0.0426169
-0.0271298
-0.0128844
0.00201579
0.013424
-0.692811
-0.725051
-0.750321
-0.763282
-0.758021
-0.731891
-0.684864
-0.621737
-0.548961
-0.473871
-0.402143
-0.337065
-0.280297
-0.231134
-0.188437
-0.152231
-0.121516
-0.0954353
-0.0731854
-0.0540481
-0.0373887
-0.0223117
-0.00734403
0.00579566
-0.694131
-0.725787
-0.750173
-0.762941
-0.759116
-0.735964
-0.693627
-0.635114
-0.566226
-0.493305
-0.422112
-0.356335
-0.298082
-0.246906
-0.202629
-0.165012
-0.132709
-0.105329
-0.0819517
-0.0617736
-0.0441528
-0.0283653
-0.0132667
0.000899957
-0.693929
-0.724043
-0.746032
-0.756425
-0.751581
-0.729001
-0.689116
-0.634266
-0.569261
-0.499534
-0.430362
-0.365455
-0.30699
-0.255569
-0.210702
-0.171767
-0.138791
-0.110751
-0.0866592
-0.0658041
-0.0475563
-0.0312562
-0.0160657
-0.00155212
-0.692693
-0.720569
-0.739042
-0.745548
-0.737612
-0.71356
-0.673909
-0.621255
-0.559369
-0.492999
-0.426652
-0.363829
-0.306616
-0.255871
-0.211402
-0.172878
-0.139797
-0.111548
-0.0872664
-0.0662363
-0.0478238
-0.0313742
-0.0163201
-0.00200906
-0.691152
-0.716303
-0.730484
-0.73205
-0.719524
-0.69252
-0.651389
-0.599267
-0.539441
-0.475936
-0.412555
-0.3524
-0.297382
-0.248316
-0.205215
-0.16777
-0.135477
-0.107759
-0.0839249
-0.063302
-0.0452792
-0.0291959
-0.0146866
-0.000991609
-0.690034
-0.712411
-0.721775
-0.717796
-0.699923
-0.669069
-0.624908
-0.571968
-0.513116
-0.451694
-0.390947
-0.333483
-0.280976
-0.234141
-0.193012
-0.157269
-0.126432
-0.0999417
-0.0771866
-0.0575513
-0.040478
-0.0253121
-0.0118839
0.000814153
-0.689979
-0.710195
-0.714419
-0.704634
-0.680828
-0.643708
-0.597392
-0.542937
-0.484023
-0.423833
-0.365142
-0.31008
-0.260008
-0.215509
-0.176577
-0.142872
-0.113903
-0.0891133
-0.0679258
-0.0497701
-0.0341416
-0.0204042
-0.00854816
0.00270721
-0.692061
-0.710536
-0.709981
-0.694356
-0.664897
-0.623128
-0.572389
-0.515423
-0.455553
-0.395666
-0.338299
-0.285131
-0.237199
-0.1949
-0.158144
-0.126549
-0.0995902
-0.0767054
-0.0573363
-0.0409486
-0.0270851
-0.0151719
-0.00519652
0.00405127
-0.697136
-0.714534
-0.709641
-0.688414
-0.653732
-0.607187
-0.552181
-0.49218
-0.430584
-0.370213
-0.313269
-0.261267
-0.214948
-0.174517
-0.139749
-0.110178
-0.0852212
-0.0642725
-0.0467686
-0.0322096
-0.0201752
-0.0102188
-0.00223485
0.00440824
-0.705797
-0.723708
-0.713988
-0.688044
-0.648668
-0.597612
-0.538533
-0.475288
-0.411456
-0.349841
-0.292538
-0.240867
-0.195417
-0.156279
-0.123056
-0.0951908
-0.0720396
-0.0529461
-0.0372933
-0.0245779
-0.0143921
-0.00634055
-0.000201813
0.00391392
-0.720978
-0.738917
-0.724148
-0.694135
-0.650419
-0.595132
-0.532058
-0.465364
-0.398883
-0.335487
-0.277173
-0.225151
-0.179811
-0.141438
-0.109213
-0.0825633
-0.0607875
-0.0432059
-0.0290925
-0.0179157
-0.0092709
-0.00279179
0.00179633
0.00407601
-0.75698
-0.760953
-0.740442
-0.706672
-0.659133
-0.599914
-0.532689
-0.462071
-0.39232
-0.326514
-0.266598
-0.213744
-0.168348
-0.129822
-0.0979843
-0.072035
-0.0510972
-0.0348321
-0.022117
-0.0124094
-0.00516233
0.000147983
0.0040655
0.00597737
-0.828092
-0.844099
-0.862356
-0.879775
-0.874405
-0.848678
-0.821669
-0.842365
-0.860115
-0.879574
-0.877555
-0.853074
-0.809036
-0.838363
-0.855396
-0.875513
-0.877326
-0.862859
-0.802456
-0.834925
-0.851734
-0.871795
-0.876652
-0.870985
-0.808555
-0.833742
-0.850346
-0.870069
-0.87771
-0.878798
-0.821402
-0.834429
-0.85078
-0.869921
-0.880347
-0.886979
-0.829362
-0.835568
-0.85199
-0.870634
-0.883762
-0.895033
-0.83188
-0.83662
-0.853426
-0.871717
-0.887224
-0.902228
-0.833757
-0.837372
-0.854801
-0.872814
-0.890169
-0.907932
-0.835805
-0.837706
-0.855852
-0.873601
-0.892178
-0.911636
-0.837601
-0.837494
-0.856395
-0.873822
-0.892964
-0.912991
-0.838634
-0.83661
-0.856376
-0.873338
-0.892381
-0.911859
-0.838593
-0.835163
-0.855632
-0.872149
-0.890442
-0.908326
-0.837391
-0.833
-0.854424
-0.870348
-0.887307
-0.902682
-0.835102
-0.830161
-0.852835
-0.868085
-0.88326
-0.895363
-0.831903
-0.826762
-0.850991
-0.865572
-0.878672
-0.88684
-0.828335
-0.822894
-0.849115
-0.863098
-0.87398
-0.87772
-0.82807
-0.819242
-0.84758
-0.861094
-0.869701
-0.869427
-0.833016
-0.81766
-0.846741
-0.860101
-0.866665
-0.8644
-0.835794
-0.817299
-0.846233
-0.860457
-0.866228
-0.865132
-0.832892
-0.816459
-0.8454
-0.861841
-0.869694
-0.879972
-0.824915
-0.814046
-0.843676
-0.863803
-0.876346
-0.917674
-0.814062
-0.810371
-0.841662
-0.865667
-0.883708
-0.963639
-0.808873
-0.807964
-0.8415
-0.868335
-0.890476
-0.989411
-0.810086
-0.786771
-0.761304
-0.725138
-0.675092
-0.612299
-0.540541
-0.46515
-0.391057
-0.321767
-0.259309
-0.204766
-0.158317
-0.119525
-0.0877911
-0.0623568
-0.0424901
-0.0269954
-0.0155793
-0.00737785
-0.00165095
0.00254366
0.00695122
0.010094
-0.83071
-0.810435
-0.78559
-0.749641
-0.698608
-0.632484
-0.555538
-0.474152
-0.394249
-0.320002
-0.253779
-0.196597
-0.148478
-0.108829
-0.0767541
-0.0513127
-0.0315424
-0.0164889
-0.00537262
0.00248462
0.00770221
0.0112992
0.0146884
0.0147555
-0.847795
-0.833178
-0.812916
-0.780154
-0.729684
-0.660653
-0.57778
-0.489003
-0.40177
-0.321151
-0.249943
-0.189164
-0.138683
-0.0975734
-0.064774
-0.0391285
-0.0195342
-0.00501344
0.00524328
0.011881
0.0154491
0.0167114
0.0165441
0.0123362
-0.864006
-0.856424
-0.843202
-0.816238
-0.76831
-0.697094
-0.607666
-0.510172
-0.414137
-0.325763
-0.248542
-0.183584
-0.130388
-0.0877038
-0.054116
-0.0282282
-0.00877989
0.00527985
0.0147784
0.0203443
0.0224408
0.0215635
0.0180317
0.0108316
-0.87978
-0.880307
-0.875924
-0.857177
-0.813926
-0.74141
-0.644632
-0.536466
-0.429425
-0.331753
-0.247861
-0.178587
-0.122943
-0.079164
-0.0453446
-0.0197323
-0.000832884
0.0125604
0.0213481
0.0261888
0.0274986
0.0257758
0.0209548
0.0132313
-0.895046
-0.904175
-0.909894
-0.901451
-0.864932
-0.792112
-0.687227
-0.566643
-0.447375
-0.340057
-0.249192
-0.175534
-0.117573
-0.0729432
-0.0392131
-0.0142264
0.00376871
0.0162848
0.0243956
0.0288376
0.029995
0.0286314
0.0237516
0.0174146
-0.909311
-0.926895
-0.943213
-0.946449
-0.918349
-0.846483
-0.733874
-0.601594
-0.472067
-0.356708
-0.260337
-0.183283
-0.123423
-0.077845
-0.0437976
-0.0189418
-0.00154184
0.0102823
0.0181193
0.0225905
0.0240588
0.023614
0.0192972
0.0165881
-0.921779
-0.946948
-0.973227
-0.988156
-0.968764
-0.897792
-0.779381
-0.638431
-0.501564
-0.381388
-0.282346
-0.204175
-0.143861
-0.0978654
-0.0630047
-0.0368278
-0.0170997
-0.00276569
0.0066181
0.0123662
0.0156998
0.0171703
0.016309
0.0176968
-0.931527
-0.962608
-0.996927
-1.02155
-1.00771
-0.936584
-0.812844
-0.666341
-0.525861
-0.404521
-0.30583
-0.228939
-0.169585
-0.123753
-0.0882008
-0.0603926
-0.0387865
-0.0222213
-0.00977809
-0.000768375
0.00577339
0.0104436
0.0135626
0.0195146
-0.937708
-0.972435
-1.01241
-1.04208
-1.02821
-0.953807
-0.825137
-0.676624
-0.537219
-0.418348
-0.322216
-0.247678
-0.18955
-0.143834
-0.107751
-0.079108
-0.056207
-0.0378906
-0.0232104
-0.0115362
-0.00237216
0.00530325
0.0129542
0.021181
-0.939741
-0.975647
-1.018
-1.04624
-1.02745
-0.94605
-0.814023
-0.667722
-0.533607
-0.419925
-0.328945
-0.257529
-0.201087
-0.15591
-0.119503
-0.0900545
-0.0661297
-0.0465811
-0.030443
-0.0169859
-0.00598947
0.00428794
0.0157973
0.0237869
-0.937378
-0.971938
-1.01341
-1.0333
-1.00543
-0.915107
-0.78201
-0.641653
-0.515451
-0.410629
-0.326114
-0.258368
-0.204263
-0.160427
-0.124535
-0.0949712
-0.0704628
-0.0499826
-0.03269
-0.0178406
-0.00483564
0.0070021
0.0201614
0.0287586
-0.930712
-0.961881
-0.998405
-1.00494
-0.964117
-0.865471
-0.733895
-0.601955
-0.486612
-0.391407
-0.313493
-0.250234
-0.198812
-0.15667
-0.121827
-0.0928245
-0.0684962
-0.0478744
-0.0301813
-0.0148564
-0.00138136
0.0117426
0.0274465
0.0359017
-0.920221
-0.946703
-0.971687
-0.963902
-0.907577
-0.802262
-0.675156
-0.55324
-0.449361
-0.363427
-0.292409
-0.233924
-0.185666
-0.145591
-0.112072
-0.0838631
-0.0599674
-0.0395478
-0.0219217
-0.00659463
0.00697973
0.0208067
0.0383274
0.0453257
-0.906891
-0.927846
-0.933714
-0.911803
-0.84007
-0.729901
-0.609398
-0.499212
-0.40586
-0.328398
-0.264063
-0.210471
-0.16571
-0.128131
-0.0963679
-0.0693427
-0.046199
-0.026244
-0.00893516
0.00611598
0.0194678
0.0335715
0.0521833
0.0566287
-0.891938
-0.906595
-0.888044
-0.849454
-0.763865
-0.651895
-0.539844
-0.440838
-0.357592
-0.288158
-0.230012
-0.181118
-0.139868
-0.104919
-0.0751479
-0.0496442
-0.0276711
-0.00863203
0.00792744
0.0223178
0.0351297
0.049259
0.0685913
0.0698203
-0.875857
-0.877421
-0.839987
-0.77854
-0.680664
-0.570633
-0.468048
-0.379796
-0.305748
-0.243673
-0.191357
-0.147039
-0.109332
-0.0771092
-0.0494508
-0.0256171
-0.00500787
0.0128737
0.0284108
0.0418516
0.0538353
0.0676949
0.087434
0.0850037
-0.860825
-0.831502
-0.787537
-0.70054
-0.592857
-0.48752
-0.394838
-0.316565
-0.250989
-0.195793
-0.14902
-0.109156
-0.0750105
-0.0456278
-0.0202435
0.00174653
0.0208262
0.0374002
0.0517806
0.0641431
0.0751482
0.0885166
0.1084
0.102129
-0.847547
-0.777497
-0.720546
-0.614112
-0.501759
-0.403154
-0.320466
-0.251581
-0.193924
-0.145263
-0.103858
-0.0683839
-0.0378133
-0.011342
0.0116579
0.0316729
0.0490904
0.0642387
0.0773589
0.0885486
0.0984636
0.111194
0.131116
0.121205
-0.82202
-0.730277
-0.638382
-0.518103
-0.407517
-0.317671
-0.244955
-0.185112
-0.135116
-0.0928353
-0.0567172
-0.0256096
0.00136066
0.0248614
0.0454021
0.0633679
0.0790638
0.0927487
0.104588
0.114578
0.123364
0.135391
0.155305
0.142236
-0.768202
-0.677872
-0.542924
-0.413005
-0.309734
-0.230662
-0.16832
-0.117519
-0.0751311
-0.039185
-0.00832858
0.0184087
0.0417456
0.0622229
0.0802457
0.0961152
0.110067
0.122296
0.13289
0.141727
0.149418
0.160706
0.18058
0.165204
-0.690361
-0.582271
-0.424592
-0.297788
-0.207789
-0.141843
-0.0908005
-0.0493538
-0.0146526
0.0149637
0.0405773
0.0629486
0.0826344
0.100053
0.115517
0.129257
0.141454
0.152249
0.16166
0.169451
0.176149
0.186675
0.206447
0.190182
-0.608166
-0.423684
-0.275164
-0.172604
-0.102649
-0.052146
-0.0132134
0.0186311
0.0456161
0.0689391
0.0893528
0.107383
0.12342
0.137759
0.150629
0.1622
0.172611
0.181967
0.190243
0.197142
0.20306
0.212803
0.232232
0.217698
-0.463656
-0.212816
-0.102009
-0.0405784
0.00359417
0.0368572
0.0632404
0.0854728
0.104866
0.122045
0.137386
0.151165
0.163599
0.174864
0.185104
0.194435
0.202958
0.210763
0.217848
0.223961
0.229286
0.237741
0.255827
0.250852
1.24083
1.26499
1.28338
1.28722
1.22264
0.975803
1.2411
1.2609
1.26773
1.26012
1.16087
0.966908
1.24085
1.25526
1.25262
1.23552
1.13697
0.968852
1.2402
1.25029
1.24184
1.21826
1.12735
0.983229
1.24068
1.24675
1.23497
1.20742
1.12508
0.999143
1.24087
1.24445
1.2304
1.2009
1.12551
1.0129
1.24028
1.24274
1.22711
1.19697
1.12656
1.02497
1.23937
1.24114
1.22469
1.19437
1.12808
1.03595
1.23831
1.23945
1.22291
1.19257
1.13014
1.04605
1.23716
1.23761
1.22163
1.19156
1.13276
1.05535
1.23596
1.23567
1.22074
1.19139
1.13596
1.06385
1.23475
1.2337
1.22025
1.19202
1.13969
1.07186
1.23351
1.23178
1.22017
1.19339
1.14398
1.07941
1.23226
1.23004
1.22048
1.19543
1.14879
1.08661
1.23103
1.22853
1.22112
1.19805
1.15408
1.09352
1.22987
1.22726
1.22202
1.2011
1.15979
1.10018
1.22895
1.22622
1.22305
1.20442
1.16579
1.1066
1.22897
1.22541
1.22404
1.20782
1.17189
1.11271
1.22956
1.22488
1.22467
1.21104
1.17772
1.11833
1.22883
1.22426
1.2245
1.21368
1.18269
1.12312
1.22718
1.22306
1.22315
1.21504
1.18626
1.12696
1.22624
1.22112
1.22042
1.21433
1.18822
1.1297
1.22663
1.21885
1.21685
1.21156
1.18816
1.12674
1.22709
1.21702
1.21381
1.20828
1.18186
1.08248
0.00769779
0.0113882
0.0652009
0.0885654
0.106641
0.122685
0.136962
0.150085
0.16231
0.17367
0.18418
0.193878
0.202816
0.211052
0.218636
0.225617
0.232039
0.237969
0.243447
0.248301
0.252177
0.256604
0.269269
0.295734
0.341913
0.210642
0.210167
0.204923
0.201756
0.202925
0.206573
0.211583
0.217314
0.223332
0.229363
0.235244
0.240882
0.246219
0.251213
0.255821
0.260013
0.263781
0.2671
0.269612
0.270576
0.271999
0.285577
0.313697
0.544783
0.37955
0.335783
0.30672
0.287502
0.276845
0.27154
0.269487
0.269462
0.270691
0.272674
0.275089
0.277721
0.280418
0.283057
0.285529
0.28775
0.289672
0.291171
0.291676
0.290671
0.292424
0.309737
0.323985
0.676257
0.51057
0.440348
0.394801
0.363976
0.344117
0.331451
0.323419
0.318434
0.315487
0.313913
0.313271
0.313255
0.313638
0.314235
0.314892
0.315494
0.31597
0.316146
0.315376
0.313469
0.315966
0.335273
0.341468
0.764552
0.610615
0.526792
0.470433
0.431358
0.404585
0.386104
0.373181
0.364045
0.35755
0.352929
0.349662
0.347376
0.345789
0.34467
0.34383
0.343126
0.34247
0.34165
0.33999
0.337489
0.340259
0.360226
0.362127
0.826247
0.686181
0.59716
0.534727
0.490216
0.458477
0.435554
0.418739
0.406217
0.396781
0.389613
0.384144
0.379958
0.376732
0.374202
0.372147
0.370405
0.368871
0.367305
0.365013
0.362104
0.364931
0.384915
0.384338
0.871273
0.743947
0.654508
0.589235
0.541397
0.506208
0.480001
0.460178
0.444961
0.433145
0.423897
0.416623
0.410881
0.406321
0.40265
0.399623
0.397058
0.394836
0.392697
0.389941
0.386749
0.389531
0.409125
0.407056
0.905321
0.789004
0.701503
0.635414
0.58574
0.548294
0.51974
0.497657
0.480353
0.466659
0.455751
0.447033
0.440048
0.434426
0.429851
0.426058
0.42285
0.420097
0.417525
0.41444
0.41108
0.413765
0.432658
0.429718
0.931862
0.824835
0.740261
0.674544
0.624076
0.585263
0.555109
0.531386
0.512513
0.497377
0.485184
0.475342
0.46739
0.460944
0.455671
0.451289
0.447591
0.444435
0.441546
0.438245
0.434817
0.437371
0.455307
0.451921
0.953134
0.853791
0.772411
0.70772
0.657152
0.617627
0.586453
0.561595
0.541588
0.525385
0.512228
0.501542
0.492863
0.4858
0.480006
0.475186
0.471124
0.467675
0.464564
0.461143
0.45773
0.460123
0.47689
0.47336
0.970667
0.877495
0.799194
0.735844
0.685622
0.645858
0.614111
0.588523
0.567739
0.550784
0.536938
0.525644
0.516445
0.508942
0.502776
0.497645
0.493326
0.489675
0.486422
0.482961
0.47963
0.48183
0.497255
0.493796
0.985335
0.897068
0.821548
0.759646
0.710044
0.670374
0.638396
0.612398
0.59113
0.573683
0.559376
0.547676
0.53813
0.530334
0.523923
0.518585
0.514099
0.510319
0.506989
0.503553
0.500354
0.502331
0.516279
0.513038
0.997746
0.913297
0.840174
0.779706
0.73088
0.691542
0.659591
0.633437
0.61192
0.594192
0.579615
0.567675
0.557925
0.549959
0.543405
0.537947
0.533363
0.529515
0.52616
0.522799
0.519768
0.521491
0.533868
0.530937
1.00831
0.926724
0.855589
0.796475
0.748511
0.709673
0.677946
0.651834
0.630257
0.612422
0.597728
0.585681
0.575844
0.567807
0.561192
0.555682
0.55106
0.547189
0.54385
0.5406
0.53776
0.539206
0.549955
0.547385
1.01726
0.937697
0.868162
0.810295
0.763242
0.725028
0.693677
0.667767
0.646279
0.628474
0.613786
0.60174
0.591908
0.583877
0.577266
0.571759
0.567141
0.563284
0.559991
0.556878
0.55424
0.555392
0.564501
0.562308
1.02471
0.946411
0.878132
0.821418
0.775316
0.737826
0.706976
0.681392
0.660113
0.642447
0.62786
0.615899
0.606141
0.598175
0.591618
0.586153
0.581573
0.577756
0.574529
0.57157
0.569139
0.569992
0.577489
0.575663
1.03068
0.952925
0.885634
0.830017
0.784924
0.748251
0.718007
0.692852
0.671877
0.654433
0.640019
0.628203
0.618571
0.610713
0.604244
0.59885
0.594331
0.590573
0.587427
0.58463
0.582407
0.582982
0.588947
0.587422
1.03503
0.95717
0.890719
0.836209
0.792221
0.756463
0.726921
0.702278
0.681679
0.664519
0.65033
0.638702
0.62923
0.621508
0.615149
0.609845
0.605402
0.601714
0.598654
0.596021
0.594017
0.594376
0.598919
0.597457
1.03752
0.958951
0.893371
0.840085
0.797348
0.762616
0.73386
0.709796
0.689625
0.672791
0.65886
0.647444
0.638152
0.630578
0.624341
0.619136
0.614772
0.611153
0.608173
0.605682
0.603871
0.604041
0.607235
0.605608
1.03784
0.957988
0.893533
0.841738
0.800455
0.766866
0.738966
0.715527
0.695818
0.679333
0.665675
0.654481
0.645373
0.637953
0.63184
0.626732
0.622446
0.618887
0.615971
0.613591
0.611892
0.611767
0.613785
0.612492
1.0358
0.953911
0.891146
0.841301
0.801721
0.769387
0.742387
0.719595
0.700359
0.684228
0.670842
0.659866
0.650937
0.643665
0.637673
0.632662
0.628451
0.624952
0.622098
0.619815
0.61819
0.617762
0.618843
0.61806
1.03078
0.94619
0.8862
0.838989
0.801379
0.770377
0.744288
0.722132
0.703353
0.687558
0.674428
0.663651
0.654886
0.647751
0.641871
0.636953
0.632815
0.629375
0.62658
0.624384
0.622826
0.622178
0.62256
0.622124
1.01909
0.934214
0.878961
0.835194
0.799725
0.770047
0.74482
0.723255
0.704896
0.689404
0.676497
0.665891
0.657264
0.650244
0.644463
0.639627
0.635557
0.632171
0.629428
0.6273
0.625792
0.624998
0.624912
0.624722
0.99096
0.91847
0.870479
0.83056
0.797117
0.768608
0.74412
0.723061
0.705058
0.68982
0.677095
0.666626
0.658104
0.651174
0.645473
0.640708
0.636697
0.633359
0.63066
0.628578
0.627102
0.62623
0.625909
0.625864
)
;

boundaryField
{
    rotor
    {
        type            zeroGradient;
    }
    freestream
    {
        type            freestreamPressure;
        freestreamValue uniform 0;
        supersonic      false;
        value           nonuniform List<scalar> 
96
(
0.625398
0.622341
0.61656
0.608115
0.597039
0.58369
0.568231
0.550097
0.529736
0.507409
0.483314
0.457675
0.430746
0.402802
0.374139
0.345063
0.315894
0.286974
0.258694
0.231544
0.206189
0.183587
0.165291
0.143465
0.116841
0.0943779
0.0758144
0.0600259
0.0465943
0.0353131
0.0260006
0.0184649
0.0125252
0.00800121
0.004696
0.00240471
0.00093965
0.000131814
-0.000204788
-0.000237715
-0.000104459
7.55409e-05
0.000217952
0.000276961
0.000247429
0.000170518
0.000124392
0.000100006
4.71541e-05
7.20572e-07
8.13859e-05
0.000184648
0.000359944
0.00063188
0.000772145
0.00107184
0.00152408
0.00208262
0.00284186
0.00404871
0.00582776
0.00836956
0.0117705
0.0162089
0.0219103
0.0290667
0.0378955
0.0486238
0.0614686
0.0766745
0.0946747
0.117147
0.147603
0.166388
0.182949
0.2046
0.229303
0.256151
0.284429
0.313633
0.34331
0.373041
0.402427
0.431093
0.458695
0.484916
0.509477
0.532135
0.552674
0.570796
0.586185
0.5993
0.609985
0.617969
0.623218
0.625697
)
;
    }
    frontAndBack
    {
        type            empty;
    }
}


// ************************************************************************* //
