/*--------------------------------*- C++ -*----------------------------------*\
  =========                 |
  \\      /  F ield         | OpenFOAM: The Open Source CFD Toolbox
   \\    /   O peration     | Website:  https://openfoam.org
    \\  /    A nd           | Version:  11
     \\/     M anipulation  |
\*---------------------------------------------------------------------------*/
FoamFile
{
    format      ascii;
    class       surfaceScalarField;
    location    "2";
    object      phi;
}
// * * * * * * * * * * * * * * * * * * * * * * * * * * * * * * * * * * * * * //

dimensions      [0 3 -1 0 0 0 0];

internalField   nonuniform List<scalar> 
5640
(
-5.36618e-07
5.36618e-07
-1.91694e-06
1.38033e-06
-3.63921e-06
1.72226e-06
-5.36076e-06
1.72156e-06
-6.94767e-06
1.58691e-06
1.07238e-06
-8.02006e-06
-8.76061e-07
1.41268e-06
-2.34077e-06
2.84504e-06
-3.91545e-06
3.29694e-06
-5.43119e-06
3.23729e-06
-6.83024e-06
2.98597e-06
2.27455e-06
-8.03241e-06
-9.69034e-07
2.38171e-06
-2.36416e-06
4.24016e-06
-3.82167e-06
4.75445e-06
-5.22111e-06
4.63673e-06
-6.55277e-06
4.31763e-06
3.568e-06
-7.84622e-06
-1.01872e-06
3.40043e-06
-2.29462e-06
5.51606e-06
-3.62475e-06
6.08458e-06
-4.93393e-06
5.94591e-06
-6.22437e-06
5.60807e-06
4.89317e-06
-7.54954e-06
-1.02327e-06
4.4237e-06
-2.16461e-06
6.65741e-06
-3.36836e-06
7.28833e-06
-4.59622e-06
7.17377e-06
-5.84636e-06
6.85821e-06
6.22014e-06
-7.17333e-06
-9.8003e-07
5.40373e-06
-1.98749e-06
7.66487e-06
-3.06676e-06
8.36759e-06
-4.21154e-06
8.31855e-06
-5.41482e-06
8.06148e-06
7.52934e-06
-6.72402e-06
-9.01592e-07
6.30532e-06
-1.77138e-06
8.53466e-06
-2.72557e-06
9.32179e-06
-3.78067e-06
9.37365e-06
-4.92707e-06
9.20788e-06
8.80406e-06
-6.20179e-06
-7.955e-07
7.10082e-06
-1.52306e-06
9.26222e-06
-2.3479e-06
1.01466e-05
-3.30368e-06
1.03294e-05
-4.38088e-06
1.02851e-05
1.00286e-05
-5.60541e-06
-6.66214e-07
7.76704e-06
-1.24686e-06
9.84287e-06
-1.93599e-06
1.08358e-05
-2.7805e-06
1.11739e-05
-3.77427e-06
1.12788e-05
1.11874e-05
-4.93308e-06
-5.17609e-07
8.28465e-06
-9.46191e-07
1.02715e-05
-1.49177e-06
1.13813e-05
-2.21133e-06
1.18935e-05
-3.10552e-06
1.2173e-05
1.22646e-05
-4.18277e-06
-3.53141e-07
8.63779e-06
-6.24642e-07
1.0543e-05
-1.01748e-06
1.17742e-05
-1.59677e-06
1.24728e-05
-2.37334e-06
1.29496e-05
1.32437e-05
-3.35241e-06
-1.76189e-07
8.81398e-06
-2.86131e-07
1.06529e-05
-5.16011e-07
1.20041e-05
-9.38182e-07
1.28949e-05
-1.57704e-06
1.35885e-05
1.41066e-05
-2.43998e-06
1.23644e-08
8.80161e-06
6.45735e-08
1.06007e-05
9.50225e-09
1.20591e-05
-2.37821e-07
1.31423e-05
-7.16753e-07
1.40674e-05
1.48335e-05
-1.44366e-06
1.99112e-07
8.6025e-06
4.24761e-07
1.0375e-05
5.53364e-07
1.19305e-05
5.00936e-07
1.31947e-05
2.06441e-07
1.43619e-05
1.54021e-05
-3.62086e-07
3.892e-07
8.2133e-06
7.8712e-07
9.97711e-06
1.11041e-06
1.16072e-05
1.27277e-06
1.30323e-05
1.1901e-06
1.44446e-05
1.57861e-05
8.06097e-07
5.75071e-07
7.63823e-06
1.14561e-06
9.40657e-06
1.67207e-06
1.10808e-05
2.06976e-06
1.26346e-05
2.22954e-06
1.42848e-05
1.59547e-05
2.06089e-06
7.50739e-07
6.88749e-06
1.49172e-06
8.66559e-06
2.22738e-06
1.03451e-05
2.88017e-06
1.19819e-05
3.31606e-06
1.38489e-05
1.58704e-05
3.40041e-06
9.08806e-07
5.97868e-06
1.81456e-06
7.75984e-06
2.76185e-06
9.39784e-06
3.68729e-06
1.10564e-05
4.43504e-06
1.31011e-05
1.5487e-05
4.81843e-06
1.03912e-06
4.93956e-06
2.10006e-06
6.69891e-06
3.25587e-06
8.24203e-06
4.4673e-06
9.84498e-06
5.56396e-06
1.20045e-05
1.4748e-05
6.30296e-06
1.12722e-06
3.81234e-06
2.3296e-06
5.49653e-06
3.6833e-06
6.88832e-06
5.18795e-06
8.34034e-06
6.6688e-06
1.05236e-05
1.35811e-05
7.83569e-06
1.15414e-06
2.65819e-06
2.47864e-06
4.17203e-06
4.0113e-06
5.35566e-06
5.80596e-06
6.54568e-06
7.69958e-06
8.63e-06
1.18844e-05
9.39631e-06
1.10134e-06
1.55686e-06
2.51784e-06
2.75553e-06
4.20088e-06
3.67262e-06
6.26472e-06
4.48184e-06
8.59319e-06
6.30154e-06
9.48284e-06
1.09947e-05
9.52571e-07
6.04287e-07
2.4054e-06
1.30271e-06
4.19901e-06
1.87901e-06
6.46489e-06
2.21596e-06
9.28499e-06
3.48144e-06
5.92718e-06
1.28406e-05
6.04287e-07
1.90699e-06
3.786e-06
6.00196e-06
9.4834e-06
1.54106e-05
-1.02304e-05
-1.15624e-06
3.36662e-06
-1.25256e-05
-2.7096e-06
5.00482e-06
-1.49044e-05
-3.72201e-06
6.10074e-06
-1.73398e-05
-4.53452e-06
6.96997e-06
-1.98135e-05
-5.24967e-06
7.72331e-06
-2.23115e-05
-5.92302e-06
8.42108e-06
-2.48235e-05
-6.58197e-06
9.09392e-06
-2.73413e-05
-7.23881e-06
9.75658e-06
-2.98586e-05
-7.89871e-06
1.0416e-05
-3.23704e-05
-8.56392e-06
1.10757e-05
-3.48725e-05
-9.2354e-06
1.17376e-05
-3.73614e-05
-9.91354e-06
1.24024e-05
-3.98335e-05
-1.05984e-05
1.30705e-05
-4.22858e-05
-1.12896e-05
1.3742e-05
-4.47156e-05
-1.19866e-05
1.44164e-05
-4.71207e-05
-1.26883e-05
1.50934e-05
-4.94997e-05
-1.33936e-05
1.57726e-05
-5.1852e-05
-1.41017e-05
1.6454e-05
-5.41773e-05
-1.48121e-05
1.71375e-05
-5.64758e-05
-1.5525e-05
1.78234e-05
-5.87472e-05
-1.62404e-05
1.85118e-05
-6.09912e-05
-1.69587e-05
1.92028e-05
-6.32087e-05
-1.76794e-05
1.98968e-05
-1.84006e-05
2.0594e-05
-1.01361e-05
9.4748e-07
-1.24112e-05
-4.34584e-07
-1.47767e-05
-1.35651e-06
-1.72026e-05
-2.10854e-06
-1.96684e-05
-2.78394e-06
-2.2159e-05
-3.43241e-06
-2.46636e-05
-4.07734e-06
-2.71741e-05
-4.72829e-06
-2.96842e-05
-5.38861e-06
-3.21889e-05
-6.05926e-06
-3.46839e-05
-6.74036e-06
-3.71657e-05
-7.43176e-06
-3.96309e-05
-8.13319e-06
-4.20764e-05
-8.84411e-06
-4.44995e-05
-9.56354e-06
-4.68978e-05
-1.02899e-05
-4.92699e-05
-1.10215e-05
-5.16148e-05
-1.17567e-05
-5.39324e-05
-1.24945e-05
-5.62227e-05
-1.32347e-05
-5.84855e-05
-1.39776e-05
-6.07208e-05
-1.47234e-05
-6.29293e-05
-1.54709e-05
-1.62164e-05
-9.91943e-06
3.02069e-06
-1.21764e-05
1.82238e-06
-1.45266e-05
9.93647e-07
-1.6938e-05
3.02898e-07
-1.9389e-05
-3.32971e-07
-2.18645e-05
-9.56878e-07
-2.43539e-05
-1.58795e-06
-2.68491e-05
-2.23305e-06
-2.9344e-05
-2.89377e-06
-3.18334e-05
-3.56983e-06
-3.43133e-05
-4.26049e-06
-3.678e-05
-4.96503e-06
-3.92303e-05
-5.68285e-06
-4.16612e-05
-6.4132e-06
-4.40699e-05
-7.15488e-06
-4.64539e-05
-7.90596e-06
-4.88114e-05
-8.66401e-06
-5.11414e-05
-9.42674e-06
-5.34434e-05
-1.01925e-05
-5.57173e-05
-1.09608e-05
-5.79632e-05
-1.17317e-05
-6.01809e-05
-1.25057e-05
-6.23714e-05
-1.32804e-05
-1.40505e-05
-9.60548e-06
5.07663e-06
-1.18363e-05
4.05323e-06
-1.41624e-05
3.31969e-06
-1.65505e-05
2.69105e-06
-1.89781e-05
2.09458e-06
-2.143e-05
1.49509e-06
-2.38959e-05
8.77872e-07
-2.63676e-05
2.38683e-07
-2.8839e-05
-4.22363e-07
-3.13051e-05
-1.10375e-06
-3.37617e-05
-1.80385e-06
-3.62054e-05
-2.52135e-06
-3.8633e-05
-3.25528e-06
-4.10414e-05
-4.00472e-06
-4.3428e-05
-4.76831e-06
-4.57901e-05
-5.54388e-06
-4.81256e-05
-6.32853e-06
-5.04331e-05
-7.11925e-06
-5.27118e-05
-7.91378e-06
-5.49616e-05
-8.71099e-06
-5.71823e-05
-9.51105e-06
-5.93737e-05
-1.03142e-05
-6.15369e-05
-1.11172e-05
-1.19116e-05
-9.20253e-06
7.10584e-06
-1.13976e-05
6.24833e-06
-1.36892e-05
5.61128e-06
-1.60438e-05
5.0456e-06
-1.84383e-05
4.48913e-06
-2.08577e-05
3.9145e-06
-2.32914e-05
3.31152e-06
-2.57312e-05
2.67854e-06
-2.8171e-05
2.0174e-06
-3.06056e-05
1.33087e-06
-3.3031e-05
6.21526e-07
-3.54437e-05
-1.08685e-07
-3.78405e-05
-8.58397e-07
-4.02188e-05
-1.62649e-06
-4.25755e-05
-2.41153e-06
-4.49082e-05
-3.21125e-06
-4.72143e-05
-4.02244e-06
-4.9492e-05
-4.84155e-06
-5.17401e-05
-5.6656e-06
-5.39582e-05
-6.49293e-06
-5.61458e-05
-7.32347e-06
-5.83024e-05
-8.15766e-06
-6.04275e-05
-8.99209e-06
-9.80743e-06
-8.71318e-06
9.095e-06
-1.08624e-05
8.39758e-06
-1.31092e-05
7.85804e-06
-1.542e-05
7.35637e-06
-1.77719e-05
6.8411e-06
-2.01498e-05
6.29237e-06
-2.25427e-05
5.70438e-06
-2.49423e-05
5.07816e-06
-2.73422e-05
4.41733e-06
-2.97373e-05
3.72598e-06
-3.21235e-05
3.00766e-06
-3.44972e-05
2.26502e-06
-3.68555e-05
1.49989e-06
-3.91956e-05
7.13607e-07
-4.15147e-05
-9.23524e-08
-4.38103e-05
-9.15742e-07
-4.60794e-05
-1.75327e-06
-4.832e-05
-2.60101e-06
-5.05302e-05
-3.45539e-06
-5.27089e-05
-4.31414e-06
-5.48556e-05
-5.17686e-06
-5.6969e-05
-6.04418e-06
-5.90474e-05
-6.91369e-06
-7.74422e-06
-8.13723e-06
1.10304e-05
-1.02305e-05
1.04909e-05
-1.24228e-05
1.00503e-05
-1.46804e-05
9.61399e-06
-1.69808e-05
9.14151e-06
-1.93085e-05
8.62002e-06
-2.16521e-05
8.04806e-06
-2.40033e-05
7.42936e-06
-2.63554e-05
6.76939e-06
-2.87031e-05
6.07362e-06
-3.1042e-05
5.34665e-06
-3.33689e-05
4.59189e-06
-3.56807e-05
3.8117e-06
-3.79748e-05
3.00766e-06
-4.02484e-05
2.18131e-06
-4.24989e-05
1.33476e-06
-4.47234e-05
4.71187e-07
-4.69191e-05
-4.05339e-07
-4.90837e-05
-1.29075e-06
-5.12157e-05
-2.18213e-06
-5.33139e-05
-3.07866e-06
-5.53773e-05
-3.98083e-06
-5.74059e-05
-4.88506e-06
-5.73206e-06
-7.47337e-06
1.28984e-05
-9.50105e-06
1.25186e-05
-1.16301e-05
1.21793e-05
-1.38262e-05
1.18101e-05
-1.60668e-05
1.13821e-05
-1.83361e-05
1.08893e-05
-2.06225e-05
1.03345e-05
-2.29174e-05
9.72421e-06
-2.52137e-05
9.06575e-06
-2.75061e-05
8.36604e-06
-2.97903e-05
7.63077e-06
-3.20626e-05
6.86421e-06
-3.43202e-05
6.06927e-06
-3.65604e-05
5.24787e-06
-3.87807e-05
4.40161e-06
-4.09783e-05
3.53242e-06
-4.31504e-05
2.64325e-06
-4.52938e-05
1.73807e-06
-4.74058e-05
8.2128e-07
-4.94844e-05
-1.03559e-07
-5.15282e-05
-1.03491e-06
-5.35364e-05
-1.97261e-06
-5.55096e-05
-2.9118e-06
-3.78476e-06
-6.7199e-06
1.46852e-05
-8.67282e-06
1.44715e-05
-1.0731e-05
1.42375e-05
-1.28583e-05
1.39374e-05
-1.50317e-05
1.35555e-05
-1.72351e-05
1.30928e-05
-1.94569e-05
1.25562e-05
-2.16878e-05
1.19552e-05
-2.39209e-05
1.12989e-05
-2.61506e-05
1.05957e-05
-2.83724e-05
9.85254e-06
-3.05826e-05
9.07449e-06
-3.27785e-05
8.2651e-06
-3.49573e-05
7.42669e-06
-3.71166e-05
6.56096e-06
-3.92539e-05
5.66971e-06
-4.13662e-05
4.75555e-06
-4.34503e-05
3.82217e-06
-4.5503e-05
2.87401e-06
-4.75218e-05
1.91516e-06
-4.95045e-05
9.47864e-07
-5.14501e-05
-2.70151e-08
-5.33581e-05
-1.00386e-06
-1.90693e-06
-5.87483e-06
1.63773e-05
-7.74447e-06
1.63411e-05
-9.72517e-06
1.62182e-05
-1.17776e-05
1.59899e-05
-1.38775e-05
1.56554e-05
-1.60085e-05
1.52237e-05
-1.81586e-05
1.47063e-05
-2.03185e-05
1.41151e-05
-2.24813e-05
1.34616e-05
-2.4641e-05
1.27554e-05
-2.67932e-05
1.20047e-05
-2.89342e-05
1.12155e-05
-3.10611e-05
1.0392e-05
-3.31712e-05
9.53685e-06
-3.52624e-05
8.65208e-06
-3.7332e-05
7.73935e-06
-3.93773e-05
6.80088e-06
-4.13951e-05
5.83994e-06
-4.33818e-05
4.86073e-06
-4.53342e-05
3.86752e-06
-4.72495e-05
2.86315e-06
-4.91256e-05
1.8491e-06
-5.09611e-05
8.31659e-07
-1.05168e-07
-4.9359e-06
1.79608e-05
-6.71433e-06
1.81196e-05
-8.61223e-06
1.81161e-05
-1.0585e-05
1.79626e-05
-1.26063e-05
1.76767e-05
-1.46592e-05
1.72766e-05
-1.67315e-05
1.67786e-05
-1.8814e-05
1.61977e-05
-2.08996e-05
1.55472e-05
-2.29826e-05
1.48384e-05
-2.50584e-05
1.40805e-05
-2.71232e-05
1.32804e-05
-2.91742e-05
1.24429e-05
-3.12087e-05
1.15714e-05
-3.32246e-05
1.0668e-05
-3.52196e-05
9.73428e-06
-3.71909e-05
8.77219e-06
-3.91354e-05
7.78443e-06
-4.10493e-05
6.77468e-06
-4.29289e-05
5.74707e-06
-4.47704e-05
4.7047e-06
-4.65709e-05
3.64958e-06
-4.83278e-05
2.58858e-06
1.61378e-06
-3.90054e-06
1.94213e-05
-5.58035e-06
1.97994e-05
-7.39138e-06
1.99271e-05
-9.28127e-06
1.98525e-05
-1.12203e-05
1.96158e-05
-1.31905e-05
1.92468e-05
-1.51798e-05
1.87679e-05
-1.71791e-05
1.8197e-05
-1.91815e-05
1.75496e-05
-2.11814e-05
1.68383e-05
-2.31741e-05
1.60733e-05
-2.51562e-05
1.52624e-05
-2.71246e-05
1.44113e-05
-2.90768e-05
1.35237e-05
-3.10108e-05
1.26019e-05
-3.29242e-05
1.16477e-05
-3.48147e-05
1.06626e-05
-3.6679e-05
9.64877e-06
-3.85135e-05
8.60916e-06
-4.03138e-05
7.5474e-06
-4.20757e-05
6.46653e-06
-4.37948e-05
5.36873e-06
-4.54675e-05
4.26124e-06
3.24363e-06
-2.76595e-06
2.07436e-05
-4.34006e-06
2.13735e-05
-6.06141e-06
2.16484e-05
-7.86687e-06
2.1658e-05
-9.72164e-06
2.14706e-05
-1.16062e-05
2.11313e-05
-1.35083e-05
2.067e-05
-1.54195e-05
2.01082e-05
-1.73331e-05
1.94632e-05
-1.92439e-05
1.8749e-05
-2.11474e-05
1.79768e-05
-2.30404e-05
1.71554e-05
-2.49198e-05
1.62907e-05
-2.67834e-05
1.53872e-05
-2.86289e-05
1.44475e-05
-3.04543e-05
1.34732e-05
-3.22573e-05
1.24656e-05
-3.40349e-05
1.14264e-05
-3.57834e-05
1.03576e-05
-3.74982e-05
9.26225e-06
-3.91744e-05
8.14277e-06
-4.08069e-05
7.00118e-06
-4.23901e-05
5.8445e-06
4.77864e-06
-1.5294e-06
2.19109e-05
-2.99073e-06
2.28348e-05
-4.62075e-06
2.32785e-05
-6.34206e-06
2.33793e-05
-8.11246e-06
2.32409e-05
-9.90987e-06
2.29287e-05
-1.17221e-05
2.24822e-05
-1.35412e-05
2.19273e-05
-1.53612e-05
2.12833e-05
-1.71775e-05
2.05653e-05
-1.89862e-05
1.97855e-05
-2.0784e-05
1.89532e-05
-2.25683e-05
1.80751e-05
-2.43369e-05
1.71558e-05
-2.60877e-05
1.61983e-05
-2.78189e-05
1.52043e-05
-2.95281e-05
1.41748e-05
-3.12126e-05
1.31109e-05
-3.28687e-05
1.20138e-05
-3.4492e-05
1.08855e-05
-3.6077e-05
9.72774e-06
-3.76176e-05
8.54176e-06
-3.91067e-05
7.33364e-06
6.21362e-06
-1.88524e-07
2.29056e-05
-1.52972e-06
2.4176e-05
-3.06773e-06
2.48165e-05
-4.70691e-06
2.50185e-05
-6.39484e-06
2.49289e-05
-8.10562e-06
2.46395e-05
-9.82663e-06
2.42032e-05
-1.15508e-05
2.36515e-05
-1.32734e-05
2.30059e-05
-1.49906e-05
2.22824e-05
-1.6699e-05
2.14939e-05
-1.8396e-05
2.06502e-05
-2.00793e-05
1.97583e-05
-2.17468e-05
1.88234e-05
-2.33969e-05
1.78484e-05
-2.50276e-05
1.6835e-05
-2.6637e-05
1.57842e-05
-2.82224e-05
1.46962e-05
-2.97803e-05
1.35717e-05
-3.13062e-05
1.24114e-05
-3.27945e-05
1.1216e-05
-3.42383e-05
9.98556e-06
-3.56289e-05
8.72428e-06
7.54386e-06
1.25742e-06
2.3709e-05
4.46627e-08
2.53888e-05
-1.40137e-06
2.62625e-05
-2.96173e-06
2.65789e-05
-4.57097e-06
2.65381e-05
-6.19755e-06
2.62661e-05
-7.82782e-06
2.58335e-05
-9.45579e-06
2.52795e-05
-1.10781e-05
2.46281e-05
-1.26921e-05
2.38964e-05
-1.42955e-05
2.30974e-05
-1.58864e-05
2.22411e-05
-1.74631e-05
2.13349e-05
-1.90238e-05
2.03841e-05
-2.05671e-05
1.93917e-05
-2.20914e-05
1.83594e-05
-2.35951e-05
1.72878e-05
-2.50755e-05
1.61767e-05
-2.65295e-05
1.50257e-05
-2.79526e-05
1.38345e-05
-2.9339e-05
1.26024e-05
-3.06814e-05
1.13279e-05
-3.19694e-05
1.00123e-05
8.76496e-06
2.80863e-06
2.43008e-05
1.73051e-06
2.64669e-05
3.77004e-07
2.7616e-05
-1.10805e-06
2.80639e-05
-2.6435e-06
2.80736e-05
-4.19004e-06
2.78126e-05
-5.73184e-06
2.73753e-05
-7.26374e-06
2.68114e-05
-8.78409e-06
2.61485e-05
-1.0292e-05
2.54043e-05
-1.17865e-05
2.45919e-05
-1.32666e-05
2.37212e-05
-1.47313e-05
2.27996e-05
-1.61795e-05
2.18323e-05
-1.76102e-05
2.08224e-05
-1.90223e-05
1.97715e-05
-2.04142e-05
1.86797e-05
-2.1784e-05
1.75464e-05
-2.31286e-05
1.63703e-05
-2.44437e-05
1.51496e-05
-2.57235e-05
1.38822e-05
-2.69601e-05
1.25646e-05
-2.81417e-05
1.11939e-05
9.87264e-06
4.46206e-06
2.46572e-05
3.52182e-06
2.74071e-05
2.26137e-06
2.88764e-05
8.49943e-07
2.94753e-05
-6.16312e-07
2.95398e-05
-2.08802e-06
2.92843e-05
-3.54522e-06
2.88325e-05
-4.98287e-06
2.8249e-05
-6.40112e-06
2.75667e-05
-7.80112e-06
2.68043e-05
-9.18362e-06
2.59744e-05
-1.05489e-05
2.50865e-05
-1.18969e-05
2.41476e-05
-1.32273e-05
2.31627e-05
-1.45398e-05
2.21349e-05
-1.58337e-05
2.10654e-05
-1.71081e-05
1.99541e-05
-1.83614e-05
1.87997e-05
-1.9591e-05
1.75999e-05
-2.0793e-05
1.63516e-05
-2.19617e-05
1.50509e-05
-2.30887e-05
1.36917e-05
-2.41604e-05
1.22655e-05
1.08625e-05
6.2063e-06
2.47538e-05
5.40386e-06
2.82096e-05
4.23978e-06
3.00405e-05
2.90353e-06
3.08116e-05
1.50416e-06
3.09392e-05
1.02565e-07
3.06859e-05
-1.27496e-06
3.021e-05
-2.62171e-06
2.95958e-05
-3.93926e-06
2.88843e-05
-5.23096e-06
2.8096e-05
-6.49959e-06
2.7243e-05
-7.74704e-06
2.63339e-05
-8.97444e-06
2.5375e-05
-1.01825e-05
2.43708e-05
-1.13715e-05
2.33239e-05
-1.25416e-05
2.22355e-05
-1.36925e-05
2.1105e-05
-1.48233e-05
1.99305e-05
-1.5932e-05
1.87086e-05
-1.70154e-05
1.7435e-05
-1.80683e-05
1.61038e-05
-1.90822e-05
1.47056e-05
-2.0041e-05
1.32243e-05
1.17298e-05
8.01717e-06
2.45724e-05
7.34934e-06
2.88774e-05
6.28948e-06
3.11004e-05
5.03627e-06
3.20648e-05
3.7067e-06
3.22688e-05
2.37315e-06
3.20195e-05
1.071e-06
3.15122e-05
-1.89182e-07
3.0856e-05
-1.40896e-06
3.01041e-05
-2.59357e-06
2.92806e-05
-3.74799e-06
2.83975e-05
-4.87596e-06
2.74619e-05
-5.98008e-06
2.64791e-05
-7.06212e-06
2.54528e-05
-8.12333e-06
2.43852e-05
-9.16456e-06
2.32768e-05
-1.01862e-05
2.21267e-05
-1.11883e-05
2.09325e-05
-1.21698e-05
1.96901e-05
-1.31284e-05
1.83937e-05
-1.40601e-05
1.70355e-05
-1.49572e-05
1.56027e-05
-1.5801e-05
1.40681e-05
1.2469e-05
9.85624e-06
2.41124e-05
9.31332e-06
2.94203e-05
8.37278e-06
3.20409e-05
7.21967e-06
3.32179e-05
5.97204e-06
3.35164e-05
4.7111e-06
3.32804e-05
3.48284e-06
3.27404e-05
2.30518e-06
3.20336e-05
1.17912e-06
3.12301e-05
9.87256e-08
3.0361e-05
-9.4295e-07
2.94391e-05
-1.95165e-06
2.84706e-05
-2.93159e-06
2.7459e-05
-3.88579e-06
2.6407e-05
-4.81643e-06
2.53158e-05
-5.72512e-06
2.41855e-05
-6.61302e-06
2.30146e-05
-7.48075e-06
2.18003e-05
-8.32826e-06
2.05376e-05
-9.15454e-06
1.92199e-05
-9.95756e-06
1.78385e-05
-1.07326e-05
1.63778e-05
-1.14604e-05
1.47959e-05
1.3074e-05
1.16659e-05
2.34412e-05
1.12315e-05
2.98548e-05
1.04326e-05
3.28398e-05
9.40968e-06
3.42408e-05
8.26927e-06
3.46568e-05
7.09628e-06
3.44534e-05
5.94709e-06
3.38896e-05
4.85056e-06
3.31301e-05
3.81414e-06
3.22665e-05
2.83367e-06
3.13415e-05
1.90125e-06
3.03716e-05
1.00935e-06
2.93625e-05
1.52011e-07
2.83164e-05
-6.75175e-07
2.72342e-05
-1.47542e-06
2.6116e-05
-2.25104e-06
2.49611e-05
-3.00367e-06
2.37673e-05
-3.73435e-06
2.25309e-05
-4.44328e-06
2.12465e-05
-5.12976e-06
1.99064e-05
-5.79245e-06
1.85012e-05
-6.43214e-06
1.70174e-05
-7.0432e-06
1.5407e-05
1.35435e-05
1.33554e-05
2.29265e-05
1.30251e-05
3.0185e-05
1.23919e-05
3.3473e-05
1.15435e-05
3.50893e-05
1.05528e-05
3.56475e-05
9.49814e-06
3.55081e-05
8.44419e-06
3.49436e-05
7.43345e-06
3.41409e-05
6.48463e-06
3.32154e-05
5.59932e-06
3.22268e-05
4.77089e-06
3.12e-05
3.99083e-06
3.01425e-05
3.25149e-06
2.90557e-05
2.54686e-06
2.79388e-05
1.87243e-06
2.67905e-05
1.22493e-06
2.56086e-05
6.02224e-07
2.439e-05
3.21168e-09
2.313e-05
-5.72231e-07
2.1822e-05
-1.12209e-06
2.04563e-05
-1.64034e-06
1.90195e-05
-2.1135e-06
1.74906e-05
-2.54031e-06
1.58338e-05
1.39591e-05
1.49209e-05
2.34161e-05
1.47147e-05
3.03913e-05
1.42e-05
3.39877e-05
1.35573e-05
3.5732e-05
1.27691e-05
3.64356e-05
1.18766e-05
3.64006e-05
1.09468e-05
3.58733e-05
1.0036e-05
3.50517e-05
9.17773e-06
3.40736e-05
8.38419e-06
3.30203e-05
7.65365e-06
3.19305e-05
6.9784e-06
3.08178e-05
6.34961e-06
2.96845e-05
5.75941e-06
2.8529e-05
5.20134e-06
2.73485e-05
4.67035e-06
2.61396e-05
4.16278e-06
2.48975e-05
3.67656e-06
2.36162e-05
3.21164e-06
2.22869e-05
2.77077e-06
2.08972e-05
2.364e-06
1.94262e-05
2.0158e-06
1.78388e-05
1.74882e-06
1.61007e-05
1.43024e-05
1.91594e-07
-1.91594e-07
8.37227e-07
-6.45633e-07
1.81115e-06
-9.73921e-07
3.15694e-06
-1.3458e-06
4.71146e-06
-1.55451e-06
-2.0072e-06
6.71866e-06
3.60057e-07
-5.51651e-07
1.05059e-06
-1.33616e-06
2.02285e-06
-1.94618e-06
3.17525e-06
-2.49819e-06
4.35013e-06
-2.7294e-06
-2.81499e-06
5.15792e-06
4.21085e-07
-9.72736e-07
1.0915e-06
-2.00658e-06
1.99307e-06
-2.84776e-06
2.97564e-06
-3.48076e-06
3.83729e-06
-3.59105e-06
-3.14557e-06
4.16786e-06
4.51538e-07
-1.42427e-06
1.07317e-06
-2.62822e-06
1.88033e-06
-3.65491e-06
2.73733e-06
-4.33777e-06
3.51416e-06
-4.36788e-06
-3.61017e-06
3.97877e-06
4.39825e-07
-1.8641e-06
1.00246e-06
-3.19085e-06
1.71686e-06
-4.36931e-06
2.47988e-06
-5.10079e-06
3.22393e-06
-5.11192e-06
-4.25396e-06
3.86771e-06
3.95845e-07
-2.25994e-06
8.91458e-07
-3.68646e-06
1.51646e-06
-4.99431e-06
2.20181e-06
-5.78613e-06
2.92029e-06
-5.8304e-06
-4.99662e-06
3.66295e-06
3.30529e-07
-2.59047e-06
7.52011e-07
-4.10795e-06
1.28789e-06
-5.5302e-06
1.89984e-06
-6.39808e-06
2.5888e-06
-6.51936e-06
-5.79096e-06
3.38313e-06
2.51887e-07
-2.84236e-06
5.93144e-07
-4.4492e-06
1.03788e-06
-5.97494e-06
1.5732e-06
-6.93339e-06
2.21853e-06
-7.16469e-06
-6.59319e-06
3.02076e-06
1.65641e-07
-3.008e-06
4.21977e-07
-4.70554e-06
7.71994e-07
-6.32495e-06
1.22285e-06
-7.38425e-06
1.80505e-06
-7.74689e-06
-7.36037e-06
2.57223e-06
7.62054e-08
-3.08421e-06
2.44244e-07
-4.87358e-06
4.95111e-07
-6.57582e-06
8.51288e-07
-7.74043e-06
1.34912e-06
-8.24472e-06
-8.05356e-06
2.04231e-06
-1.33752e-08
-3.07083e-06
6.47883e-08
-4.95174e-06
2.11857e-07
-6.72289e-06
4.62454e-07
-7.99102e-06
8.55366e-07
-8.63763e-06
-8.63902e-06
1.44083e-06
-9.86018e-08
-2.97223e-06
-1.12071e-07
-4.93827e-06
-7.30935e-08
-6.76187e-06
6.14168e-08
-8.12553e-06
3.31164e-07
-8.90738e-06
-9.08882e-06
7.80962e-07
-1.77785e-07
-2.79444e-06
-2.82145e-07
-4.83391e-06
-3.54677e-07
-6.68933e-06
-3.45478e-07
-8.13473e-06
-2.14003e-07
-9.03886e-06
-9.38068e-06
7.78542e-08
-2.47812e-07
-2.54663e-06
-4.40992e-07
-4.64073e-06
-6.27342e-07
-6.50298e-06
-7.51255e-07
-8.01082e-06
-7.68677e-07
-9.02144e-06
-9.49871e-06
-6.50647e-07
-3.05831e-07
-2.2408e-06
-5.84053e-07
-4.36251e-06
-8.84886e-07
-6.20215e-06
-1.14775e-06
-7.74795e-06
-1.32085e-06
-8.84834e-06
-9.43298e-06
-1.38658e-06
-3.49003e-07
-1.8918e-06
-7.06685e-07
-4.00483e-06
-1.12038e-06
-5.78845e-06
-1.52587e-06
-7.34246e-06
-1.8593e-06
-8.51491e-06
-9.18202e-06
-2.11026e-06
-3.74488e-07
-1.51731e-06
-8.04076e-07
-3.57524e-06
-1.3262e-06
-5.26633e-06
-1.87451e-06
-6.79415e-06
-2.37277e-06
-8.01666e-06
-8.74956e-06
-2.80523e-06
-3.79494e-07
-1.13781e-06
-8.71274e-07
-3.08346e-06
-1.49413e-06
-4.64348e-06
-2.18088e-06
-6.1074e-06
-2.84696e-06
-7.35057e-06
-8.13815e-06
-3.45837e-06
-3.61432e-07
-7.76383e-07
-9.03185e-07
-2.54171e-06
-1.6158e-06
-3.93086e-06
-2.4334e-06
-5.2898e-06
-3.2637e-06
-6.52028e-06
-7.34788e-06
-4.05397e-06
-3.17837e-07
-4.58545e-07
-8.94452e-07
-1.96509e-06
-1.68035e-06
-3.14497e-06
-2.61856e-06
-4.35159e-06
-3.61089e-06
-5.52794e-06
-6.38143e-06
-4.57735e-06
-2.47716e-07
-2.1083e-07
-8.39579e-07
-1.37323e-06
-1.67453e-06
-2.31002e-06
-2.71618e-06
-3.30994e-06
-3.87392e-06
-4.3702e-06
-5.23672e-06
-5.01862e-06
-1.74011e-07
-3.68189e-08
-7.33327e-07
-8.13913e-07
-1.57991e-06
-1.46343e-06
-2.69428e-06
-2.19557e-06
-4.0317e-06
-3.03279e-06
-3.89884e-06
-5.36957e-06
-8.44533e-08
4.76344e-08
-5.67169e-07
-3.31197e-07
-1.3613e-06
-6.69305e-07
-2.49078e-06
-1.06609e-06
-4.01575e-06
-1.50781e-06
-2.31039e-06
-5.6042e-06
4.76344e-08
-2.83563e-07
-9.52868e-07
-2.01895e-06
-3.52677e-06
-5.83716e-06
1.4492e-05
1.56428e-05
1.56289e-05
2.92544e-05
1.56704e-05
3.39462e-05
1.53766e-05
3.60258e-05
1.48654e-05
3.69468e-05
1.41894e-05
3.70766e-05
1.34234e-05
3.66393e-05
1.26364e-05
3.58387e-05
1.18787e-05
3.48313e-05
1.11772e-05
3.37218e-05
1.05394e-05
3.25683e-05
9.96133e-06
3.13959e-05
9.43442e-06
3.02114e-05
8.94924e-06
2.90142e-05
8.49716e-06
2.78006e-05
8.07087e-06
2.65659e-05
7.66472e-06
2.53037e-05
7.27539e-06
2.40055e-05
6.90306e-06
2.26592e-05
6.55297e-06
2.12472e-05
6.23545e-06
1.97437e-05
5.95923e-06
1.8115e-05
5.72633e-06
1.63336e-05
1.43933e-05
1.15767e-05
9.22402e-06
1.54161e-05
2.5415e-05
1.66649e-05
3.26974e-05
1.6931e-05
3.57597e-05
1.6791e-05
3.70868e-05
1.63957e-05
3.74718e-05
1.58397e-05
3.71954e-05
1.52088e-05
3.64696e-05
1.45699e-05
3.54702e-05
1.39667e-05
3.43251e-05
1.34199e-05
3.31151e-05
1.29332e-05
3.18826e-05
1.25009e-05
3.06437e-05
1.21137e-05
2.94014e-05
1.17621e-05
2.81523e-05
1.14377e-05
2.68902e-05
1.11347e-05
2.56067e-05
1.08504e-05
2.42898e-05
1.05864e-05
2.29233e-05
1.03484e-05
2.14852e-05
1.01453e-05
1.99468e-05
9.98639e-06
1.8274e-05
9.8866e-06
1.64334e-05
1.43913e-05
9.01194e-06
4.37994e-06
1.45099e-05
1.9917e-05
1.71421e-05
3.00651e-05
1.8183e-05
3.47189e-05
1.85108e-05
3.6759e-05
1.84574e-05
3.75252e-05
1.81609e-05
3.7492e-05
1.77242e-05
3.69063e-05
1.72301e-05
3.59643e-05
1.67389e-05
3.48163e-05
1.62868e-05
3.35672e-05
1.58892e-05
3.22802e-05
1.55468e-05
3.09862e-05
1.52529e-05
2.96953e-05
1.49987e-05
2.84064e-05
1.47764e-05
2.71125e-05
1.45806e-05
2.58024e-05
1.44095e-05
2.44609e-05
1.42646e-05
2.30682e-05
1.41501e-05
2.15997e-05
1.40712e-05
2.00257e-05
1.40346e-05
1.83106e-05
1.40521e-05
1.64159e-05
1.42933e-05
7.30507e-06
1.05364e-06
1.30882e-05
1.41339e-05
1.70523e-05
2.6101e-05
1.90614e-05
3.27098e-05
1.99797e-05
3.58407e-05
2.03362e-05
3.71688e-05
2.03503e-05
3.74778e-05
2.01495e-05
3.71071e-05
1.98325e-05
3.62812e-05
1.9475e-05
3.51739e-05
1.91289e-05
3.39133e-05
1.88235e-05
3.25855e-05
1.85697e-05
3.124e-05
1.83664e-05
2.98986e-05
1.82076e-05
2.85652e-05
1.8087e-05
2.72332e-05
1.79999e-05
2.58895e-05
1.79444e-05
2.45163e-05
1.79208e-05
2.30918e-05
1.793e-05
2.15906e-05
1.79735e-05
1.99822e-05
1.80545e-05
1.82296e-05
1.8182e-05
1.62885e-05
1.4097e-05
6.21139e-06
-1.29003e-06
1.1399e-05
8.9463e-06
1.63645e-05
2.11355e-05
1.9465e-05
2.96094e-05
2.11255e-05
3.41801e-05
2.19747e-05
3.63196e-05
2.23561e-05
3.70964e-05
2.24392e-05
3.70241e-05
2.23395e-05
3.63809e-05
2.21466e-05
3.53668e-05
2.1927e-05
3.41328e-05
2.17249e-05
3.27876e-05
2.15637e-05
3.14012e-05
2.14513e-05
3.00109e-05
2.13869e-05
2.86295e-05
2.13667e-05
2.72535e-05
2.1387e-05
2.58693e-05
2.14454e-05
2.44579e-05
2.15402e-05
2.29971e-05
2.16688e-05
2.1462e-05
2.18292e-05
1.98217e-05
2.20218e-05
1.8037e-05
2.22532e-05
1.6057e-05
1.3806e-05
5.55606e-06
-3.18315e-06
9.81966e-06
4.6827e-06
1.51458e-05
1.58094e-05
1.9286e-05
2.54691e-05
2.18355e-05
3.16307e-05
2.3296e-05
3.48591e-05
2.41163e-05
3.62761e-05
2.45376e-05
3.66027e-05
2.47023e-05
3.62162e-05
2.47137e-05
3.53554e-05
2.46512e-05
3.41953e-05
2.4573e-05
3.28659e-05
2.4516e-05
3.14582e-05
2.44997e-05
3.00273e-05
2.45308e-05
2.85984e-05
2.46096e-05
2.71746e-05
2.47343e-05
2.57446e-05
2.49022e-05
2.429e-05
2.51097e-05
2.27895e-05
2.53517e-05
2.12201e-05
2.56226e-05
1.95508e-05
2.59199e-05
1.77397e-05
2.62484e-05
1.57285e-05
1.34267e-05
5.09494e-06
-4.89496e-06
8.51526e-06
1.26238e-06
1.35924e-05
1.07323e-05
1.84678e-05
2.05936e-05
2.19773e-05
2.81212e-05
2.41888e-05
3.26476e-05
2.55458e-05
3.49191e-05
2.63719e-05
3.57766e-05
2.68559e-05
3.57322e-05
2.71202e-05
3.50911e-05
2.72561e-05
3.40594e-05
2.73335e-05
3.27885e-05
2.74026e-05
3.13891e-05
2.7495e-05
2.99349e-05
2.76273e-05
2.84661e-05
2.7806e-05
2.69959e-05
2.80323e-05
2.55183e-05
2.83044e-05
2.40179e-05
2.8618e-05
2.24759e-05
2.89661e-05
2.0872e-05
2.93404e-05
1.91765e-05
2.97351e-05
1.7345e-05
3.01528e-05
1.53108e-05
1.29675e-05
4.62698e-06
-6.50117e-06
7.45336e-06
-1.564e-06
1.19493e-05
6.23639e-06
1.70696e-05
1.54733e-05
2.14374e-05
2.37534e-05
2.45095e-05
2.95754e-05
2.65271e-05
3.29015e-05
2.78478e-05
3.44559e-05
2.87184e-05
3.48617e-05
2.92933e-05
3.45162e-05
2.96789e-05
3.36738e-05
2.99554e-05
3.2512e-05
3.0184e-05
3.11605e-05
3.04083e-05
2.97106e-05
3.06557e-05
2.82187e-05
3.09406e-05
2.67109e-05
3.1269e-05
2.51899e-05
3.16414e-05
2.36454e-05
3.20548e-05
2.20626e-05
3.25018e-05
2.04249e-05
3.29721e-05
1.87063e-05
3.34566e-05
1.68604e-05
3.39546e-05
1.48128e-05
1.24392e-05
4.0723e-06
-8.00125e-06
6.50348e-06
-3.99517e-06
1.03595e-05
2.38038e-06
1.52837e-05
1.05491e-05
2.01864e-05
1.88507e-05
2.41171e-05
2.56448e-05
2.69107e-05
3.01079e-05
2.88396e-05
3.2527e-05
3.01843e-05
3.3517e-05
3.11403e-05
3.35602e-05
3.18371e-05
3.2977e-05
3.23674e-05
3.19817e-05
3.28016e-05
3.07263e-05
3.31935e-05
2.93187e-05
3.35812e-05
2.78311e-05
3.3988e-05
2.63041e-05
3.44262e-05
2.47518e-05
3.49003e-05
2.31714e-05
3.54099e-05
2.1553e-05
3.595e-05
1.98848e-05
3.65095e-05
1.81467e-05
3.70765e-05
1.62934e-05
3.76461e-05
1.42432e-05
1.18531e-05
3.4075e-06
-9.36644e-06
5.54119e-06
-6.12887e-06
8.83718e-06
-9.15601e-07
1.33121e-05
6.07424e-06
1.83133e-05
1.38494e-05
2.29194e-05
2.10387e-05
2.65378e-05
2.64895e-05
2.9189e-05
2.98759e-05
3.11158e-05
3.15901e-05
3.25416e-05
3.21345e-05
3.36251e-05
3.18935e-05
3.44758e-05
3.1131e-05
3.5174e-05
3.00281e-05
3.57831e-05
2.87096e-05
3.63501e-05
2.72641e-05
3.69074e-05
2.57468e-05
3.74744e-05
2.41848e-05
3.80607e-05
2.25851e-05
3.86699e-05
2.09437e-05
3.9301e-05
1.92537e-05
3.99456e-05
1.75022e-05
4.05893e-05
1.56497e-05
4.12222e-05
1.36103e-05
1.12203e-05
2.63167e-06
-1.05573e-05
4.49369e-06
-7.99089e-06
7.31864e-06
-3.74056e-06
1.12567e-05
2.13617e-06
1.60124e-05
9.09372e-06
2.09375e-05
1.61136e-05
2.52813e-05
2.21457e-05
2.87222e-05
2.64349e-05
3.13436e-05
2.89688e-05
3.33461e-05
3.0132e-05
3.49103e-05
3.03293e-05
3.61652e-05
2.98761e-05
3.71966e-05
2.89967e-05
3.80839e-05
2.78223e-05
3.88828e-05
2.64652e-05
3.96346e-05
2.4995e-05
4.03649e-05
2.34545e-05
4.10883e-05
2.18616e-05
4.18129e-05
2.02191e-05
4.2542e-05
1.85246e-05
4.32728e-05
1.67714e-05
4.39913e-05
1.49312e-05
4.46824e-05
1.29192e-05
1.05505e-05
1.75652e-06
-1.15328e-05
3.33533e-06
-9.56969e-06
5.73826e-06
-6.14349e-06
9.13729e-06
-1.26286e-06
1.34612e-05
4.7698e-06
1.83227e-05
1.1252e-05
2.31149e-05
1.73536e-05
2.72914e-05
2.22584e-05
3.06805e-05
2.55796e-05
3.33672e-05
2.74452e-05
3.55082e-05
2.81883e-05
3.72641e-05
2.81202e-05
3.87501e-05
2.75107e-05
3.9997e-05
2.65754e-05
4.1083e-05
2.53792e-05
4.20834e-05
2.39946e-05
4.30255e-05
2.25124e-05
4.39274e-05
2.09597e-05
4.47996e-05
1.93469e-05
4.56488e-05
1.76754e-05
4.64778e-05
1.59424e-05
4.72778e-05
1.41311e-05
4.80289e-05
1.21681e-05
9.8496e-06
8.02319e-07
-1.22573e-05
2.07182e-06
-1.08392e-05
4.06821e-06
-8.13987e-06
6.94818e-06
-4.14284e-06
1.07531e-05
9.64882e-07
1.52879e-05
6.71728e-06
2.01668e-05
1.24747e-05
2.48513e-05
1.75739e-05
2.89683e-05
2.14626e-05
3.24124e-05
2.40011e-05
3.52464e-05
2.53543e-05
3.75829e-05
2.57837e-05
3.95766e-05
2.55171e-05
4.13316e-05
2.48203e-05
4.28373e-05
2.38735e-05
4.41486e-05
2.26833e-05
4.53611e-05
2.13e-05
4.64954e-05
1.98254e-05
4.75639e-05
1.82784e-05
4.85746e-05
1.66647e-05
4.95325e-05
1.49845e-05
5.04355e-05
1.32281e-05
5.12626e-05
1.1341e-05
9.11255e-06
-2.05035e-07
-1.27029e-05
7.302e-07
-1.17744e-05
2.3163e-06
-9.72597e-06
4.69396e-06
-6.5205e-06
7.94708e-06
-2.28825e-06
1.20114e-05
2.65299e-06
1.66633e-05
7.82271e-06
2.15231e-05
1.27141e-05
2.61651e-05
1.68206e-05
3.03214e-05
1.98448e-05
3.39094e-05
2.17663e-05
3.69669e-05
2.27262e-05
3.95682e-05
2.29157e-05
4.18375e-05
2.2551e-05
4.38467e-05
2.18643e-05
4.56225e-05
2.09075e-05
4.72074e-05
1.97151e-05
4.86552e-05
1.83776e-05
4.99914e-05
1.69421e-05
5.12284e-05
1.54278e-05
5.23719e-05
1.3841e-05
5.34233e-05
1.21768e-05
5.43642e-05
1.04e-05
8.31254e-06
-1.23594e-06
-1.28535e-05
-6.52468e-07
-1.23579e-05
5.17294e-07
-1.08957e-05
2.4039e-06
-8.40711e-06
5.10234e-06
-4.98668e-06
8.62442e-06
-8.69093e-07
1.2854e-05
3.59317e-06
1.75647e-05
8.00333e-06