/*--------------------------------*- C++ -*----------------------------------*\
  =========                 |
  \\      /  F ield         | OpenFOAM: The Open Source CFD Toolbox
   \\    /   O peration     | Website:  https://openfoam.org
    \\  /    A nd           | Version:  11
     \\/     M anipulation  |
\*---------------------------------------------------------------------------*/
FoamFile
{
    format      ascii;
    class       volVectorField;
    location    "2";
    object      U;
}
// * * * * * * * * * * * * * * * * * * * * * * * * * * * * * * * * * * * * * //

dimensions      [0 1 -1 0 0 0 0];

internalField   nonuniform List<vector> 
2880
(
(0.0449233 -0.0400535 -2.62639e-19)
(0.196006 -0.074812 5.42997e-30)
(0.406454 -0.0978054 -1.7332e-20)
(0.515657 -0.109001 1.25717e-19)
(0.580306 -0.115821 6.9793e-20)
(0.604561 -0.113286 -6.02435e-20)
(0.108621 -0.0795717 2.35173e-19)
(0.288124 -0.116169 0)
(0.459075 -0.130693 2.72066e-19)
(0.543269 -0.13591 -1.05719e-19)
(0.593077 -0.137008 -2.61933e-19)
(0.616747 -0.121504 2.20136e-19)
(0.138098 -0.0935641 -8.57889e-19)
(0.319426 -0.149818 6.44005e-19)
(0.467487 -0.159442 -1.92502e-19)
(0.540681 -0.159235 2.4241e-20)
(0.588205 -0.155202 1.21214e-19)
(0.614953 -0.136115 -1.34183e-19)
(0.163596 -0.110795 8.95943e-19)
(0.343238 -0.177876 -6.46864e-19)
(0.467405 -0.187015 4.89137e-19)
(0.534276 -0.181907 3.77897e-19)
(0.580463 -0.173442 3.02736e-19)
(0.610132 -0.152254 -2.47861e-19)
(0.193252 -0.149918 0)
(0.359194 -0.203714 0)
(0.464417 -0.213181 -4.62601e-19)
(0.527159 -0.204875 9.62064e-22)
(0.572547 -0.193505 -5.71148e-19)
(0.60496 -0.171596 2.36949e-19)
(0.216011 -0.173377 -1.84375e-18)
(0.36906 -0.226954 -3.68919e-20)
(0.460052 -0.237691 0)
(0.519686 -0.228128 -3.39774e-19)
(0.564828 -0.215333 8.18783e-19)
(0.600002 -0.193707 4.54609e-19)
(0.235429 -0.194646 1.89014e-18)
(0.374597 -0.247455 1.12362e-18)
(0.454665 -0.260812 -1.03842e-19)
(0.511864 -0.25181 2.37767e-21)
(0.5573 -0.238869 -4.61373e-19)
(0.595318 -0.21819 -3.36379e-19)
(0.252168 -0.21456 -1.81393e-18)
(0.376895 -0.265637 -3.4841e-20)
(0.448288 -0.282895 0)
(0.503626 -0.2761 0)
(0.549857 -0.264128 -5.12573e-19)
(0.590847 -0.244908 0)
(0.266051 -0.232012 1.92393e-18)
(0.376298 -0.281923 -1.08855e-18)
(0.44081 -0.30423 0)
(0.494835 -0.301095 0)
(0.542337 -0.291171 2.29064e-21)
(0.586486 -0.273863 3.21678e-19)
(0.27685 -0.246297 5.77803e-20)
(0.372871 -0.296649 -3.23768e-20)
(0.432038 -0.325068 0)
(0.485315 -0.326863 7.40799e-20)
(0.534539 -0.320072 3.1175e-19)
(0.582094 -0.305133 -7.37527e-19)
(0.284133 -0.257171 -2.88632e-20)
(0.3667 -0.3101 -1.01936e-18)
(0.421786 -0.345588 0)
(0.474837 -0.353463 7.27941e-20)
(0.526221 -0.350887 -6.23805e-20)
(0.577509 -0.338856 3.17349e-19)
(0.287522 -0.264713 2.8819e-20)
(0.357867 -0.32248 1.01139e-18)
(0.409867 -0.365914 0)
(0.463149 -0.380915 -1.43705e-19)
(0.517115 -0.383673 1.23701e-19)
(0.57256 -0.375222 0)
(0.286584 -0.269118 -2.88329e-20)
(0.346496 -0.333943 1.01514e-18)
(0.396082 -0.386118 0)
(0.449967 -0.409219 5.82402e-19)
(0.50692 -0.418473 4.78127e-19)
(0.567055 -0.414447 3.06584e-19)
(0.280989 -0.270764 -5.78391e-20)
(0.332582 -0.344536 -9.90555e-19)
(0.380288 -0.406195 0)
(0.434973 -0.438324 -5.11433e-19)
(0.495296 -0.455302 -5.39724e-19)
(0.560772 -0.456767 -4.06702e-19)
(0.270632 -0.269971 5.81042e-20)
(0.316061 -0.354232 -1.07895e-18)
(0.362362 -0.426044 -9.0857e-20)
(0.417846 -0.46807 1.45407e-19)
(0.481845 -0.494119 -4.19084e-19)
(0.553431 -0.502421 -1.03208e-19)
(0.255493 -0.266988 1.93228e-18)
(0.297039 -0.362936 -3.91817e-20)
(0.342205 -0.445396 0)
(0.39827 -0.498155 -7.12172e-20)
(0.466114 -0.534737 6.52133e-20)
(0.544672 -0.551602 2.95939e-19)
(0.235727 -0.261972 -1.87754e-18)
(0.275683 -0.370307 -6.29912e-21)
(0.319795 -0.463742 7.7045e-19)
(0.375929 -0.528052 0)
(0.447594 -0.576712 4.77213e-19)
(0.534035 -0.604286 -3.93462e-19)
(0.211772 -0.254819 0)
(0.252205 -0.375655 1.07492e-18)
(0.29516 -0.480254 -8.36214e-19)
(0.350489 -0.556886 1.5102e-19)
(0.425669 -0.619251 -6.23465e-20)
(0.520918 -0.660089 -2.88468e-19)
(0.184448 -0.244769 9.60386e-19)
(0.226863 -0.377792 0)
(0.268319 -0.493626 0)
(0.321635 -0.583231 7.46576e-20)
(0.399547 -0.660983 1.77522e-19)
(0.50433 -0.718277 3.85196e-19)
(0.154934 -0.22983 3.88652e-21)
(0.199756 -0.374835 0)
(0.239295 -0.501744 0)
(0.288903 -0.605143 0)
(0.368207 -0.699644 -2.48425e-19)
(0.482632 -0.777672 -1.85317e-19)
(0.124351 -0.206871 -1.95719e-18)
(0.17075 -0.363921 6.54382e-19)
(0.208111 -0.501573 0)
(0.251801 -0.62037 0)
(0.330592 -0.731543 5.93114e-20)
(0.453182 -0.836792 9.96153e-20)
(0.0947582 -0.173834 9.63614e-19)
(0.140417 -0.341512 -6.66935e-19)
(0.175213 -0.48924 0)
(0.210565 -0.62653 4.34094e-20)
(0.286076 -0.751315 1.00495e-19)
(0.412205 -0.895892 -4.01064e-20)
(0.0700569 -0.131014 0)
(0.110524 -0.302253 -1.85351e-19)
(0.142992 -0.457999 -1.66958e-19)
(0.167057 -0.621009 1.28074e-19)
(0.23366 -0.747048 -1.8331e-19)
(0.344871 -0.967686 2.90212e-20)
(0.0503628 -0.0646692 -4.22518e-21)
(0.0745226 -0.211728 2.0263e-19)
(0.100095 -0.370458 1.59319e-19)
(0.0995795 -0.58696 -1.13376e-19)
(0.163456 -0.671174 -1.10843e-20)
(0.224792 -1.08741 -4.07426e-21)
(0.650216 -0.0510834 -7.58075e-20)
(0.696525 -0.0189866 -8.49664e-21)
(0.741098 -0.00654857 0)
(0.779148 -0.000935556 -2.24716e-20)
(0.812109 0.00125778 3.01858e-20)
(0.840619 0.00182163 -1.77368e-20)
(0.865286 0.00166272 8.08619e-21)
(0.886635 0.00120845 4.31113e-20)
(0.905127 0.000657828 -2.67404e-20)
(0.921146 0.000110386 -2.459e-22)
(0.935012 -0.000382353 -1.15256e-20)
(0.946991 -0.000791919 0)
(0.957303 -0.00110483 0)
(0.96613 -0.00132033 -1.93621e-20)
(0.973624 -0.00144929 5.58735e-20)
(0.979917 -0.00150929 -3.59326e-20)
(0.985128 -0.00151734 3.44798e-20)
(0.989374 -0.00148341 -1.65267e-20)
(0.992768 -0.00140871 4.78765e-20)
(0.995412 -0.00128816 0)
(0.99739 -0.00111248 -1.48052e-20)
(0.998761 -0.0008718 7.14493e-20)
(0.999567 -0.000569076 -1.38454e-20)
(0.99993 -0.000227668 1.2363e-20)
(0.65035 -0.0704158 2.46837e-19)
(0.696774 -0.0421364 0)
(0.740358 -0.0294903 1.064e-19)
(0.778332 -0.0231535 -9.09275e-20)
(0.811423 -0.0199676 0)
(0.840139 -0.0182624 -3.48304e-20)
(0.865005 -0.0172095 -6.24565e-20)
(0.886531 -0.0164267 2.88712e-20)
(0.905171 -0.0157406 -1.05347e-19)
(0.92131 -0.0150645 4.94098e-20)
(0.93527 -0.0143506 -4.54433e-20)
(0.947319 -0.0135684 0)
(0.957678 -0.0126994 -8.08882e-20)
(0.966532 -0.0117385 7.75769e-20)
(0.974037 -0.0106965 3.69686e-20)
(0.980326 -0.00959926 1.72308e-20)
(0.985518 -0.00847862 -1.20266e-19)
(0.989731 -0.00735909 -1.15367e-19)
(0.993077 -0.00624977 1.60891e-20)
(0.995663 -0.00514414 3.05195e-20)
(0.997578 -0.00402406 -4.42018e-20)
(0.998859 -0.00287588 -4.26846e-20)
(0.99949 -0.00173159 -1.24058e-19)
(0.999635 -0.000663378 -3.67655e-20)
(0.648578 -0.0914045 -1.95215e-19)
(0.695695 -0.0655395 -2.18912e-19)
(0.739311 -0.0528817 -1.57708e-19)
(0.777775 -0.0458017 1.3735e-19)
(0.81131 -0.0415598 1.58378e-19)
(0.840401 -0.0386468 -6.94877e-20)
(0.865561 -0.0363276 1.28009e-19)
(0.887315 -0.0342651 1.147e-19)
(0.906124 -0.032308 1.57879e-19)
(0.922381 -0.0303811 0)
(0.936416 -0.0284397 4.54794e-20)
(0.9485 -0.0264515 0)
(0.958862 -0.0243923 4.04692e-20)
(0.967689 -0.0222506 -3.85878e-20)
(0.975142 -0.0200345 3.69757e-20)
(0.981356 -0.017775 -1.06107e-19)
(0.986454 -0.0155167 3.41831e-20)
(0.990553 -0.0132994 -3.2446e-20)
(0.993768 -0.0111426 3.16702e-20)
(0.996213 -0.00904031 -9.10955e-20)
(0.997983 -0.00696708 2.94163e-20)
(0.999068 -0.00491297 -8.49544e-20)
(0.999329 -0.0029566 1.64367e-19)
(0.999047 -0.00120235 2.46607e-20)
(0.646287 -0.113802 0)
(0.694414 -0.0898884 2.4824e-19)
(0.738621 -0.0770239 0)
(0.777823 -0.069071 0)
(0.811963 -0.0636439 -2.36613e-19)
(0.841524 -0.0594214 1.40814e-19)
(0.867038 -0.0557581 -6.41865e-20)
(0.889049 -0.0523563 -1.14988e-19)
(0.908035 -0.0490821 -1.0525e-19)
(0.9244 -0.0458685 0)
(0.938484 -0.0426731 0)
(0.950568 -0.039461 -8.41627e-20)
(0.960884 -0.036202 0)
(0.969628 -0.0328764 7.5842e-20)
(0.976964 -0.0294867 0)
(0.983032 -0.0260639 7.04371e-20)
(0.987958 -0.0226622 0)
(0.991862 -0.019336 1.29896e-19)
(0.99486 -0.0161175 6.22487e-20)
(0.997078 -0.0130029 1.80993e-19)
(0.998617 -0.00996124 -3.48951e-19)
(0.999395 -0.0070012 2.24869e-19)
(0.999095 -0.00428176 -5.46675e-20)
(0.998185 -0.00191448 0)
(0.644113 -0.137789 -7.17275e-20)
(0.693522 -0.115254 -1.2105e-19)
(0.738674 -0.101977 -1.54946e-19)
(0.778731 -0.0930058 3.66051e-21)
(0.813549 -0.0862662 8.03868e-20)
(0.843629 -0.0806302 -1.39264e-19)
(0.869528 -0.0755394 1.23899e-19)
(0.89181 -0.0707313 -2.28849e-19)
(0.910967 -0.0660866 -5.45436e-22)
(0.92742 -0.0615447 -9.7135e-20)
(0.941522 -0.0570645 1.7723e-19)
(0.953562 -0.0526084 -2.5106e-19)
(0.963784 -0.0481395 2.37963e-19)
(0.972386 -0.0436292 7.42493e-20)
(0.979538 -0.0390703 -2.8843e-19)
(0.985386 -0.0344894 2.77039e-19)
(0.990062 -0.0299442 -1.33688e-19)
(0.993686 -0.025502 -1.92596e-19)
(0.996379 -0.0212088 6.17597e-20)
(0.998283 -0.0170649 2.97208e-19)
(0.999502 -0.0130373 -2.30199e-19)
(0.999859 -0.00917148 5.52149e-20)
(0.998799 -0.00574653 0)
(0.997078 -0.00285635 1.89823e-19)
(0.642264 -0.163359 0)
(0.693274 -0.141673 3.6072e-19)
(0.739625 -0.127768 -1.05568e-19)
(0.780638 -0.117617 0)
(0.816192 -0.109443 7.69876e-20)
(0.846826 -0.102293 6.89269e-20)
(0.873127 -0.0956894 0)
(0.895678 -0.0894042 4.49791e-19)
(0.914991 -0.0833316 -1.03789e-19)
(0.931505 -0.0774161 9.27271e-20)
(0.945585 -0.0716177 0)
(0.957536 -0.0658958 -1.6422e-19)
(0.967606 -0.060207 -7.8846e-20)
(0.976004 -0.0545128 1.49691e-19)
(0.982903 -0.0487942 -1.42555e-19)
(0.988455 -0.0430678 -1.35812e-19)
(0.992797 -0.0373883 1.31548e-19)
(0.996051 -0.0318311 1.2532e-19)
(0.998343 -0.0264549 0)
(0.99983 -0.0212639 1.7536e-19)
(1.00063 -0.0162192 -2.26849e-19)
(1.00046 -0.0114039 -2.75025e-19)
(0.998448 -0.0072439 -3.57133e-22)
(0.995901 -0.00418252 1.905e-19)
(0.640794 -0.190571 -7.26047e-20)
(0.693734 -0.169239 0)
(0.74153 -0.15445 0)
(0.783625 -0.142935 0)
(0.819988 -0.133194 0)
(0.851214 -0.124421 0)
(0.877928 -0.116214 0)
(0.90074 -0.108376 -3.35791e-19)
(0.920186 -0.100814 3.09168e-19)
(0.936724 -0.0934774 -1.89279e-19)
(0.950739 -0.0863252 -1.72906e-19)
(0.962546 -0.0793143 3.25838e-19)
(0.972405 -0.0723952 -2.03768e-21)
(0.980531 -0.0655191 1.45393e-19)
(0.987103 -0.0586539 2.755e-19)
(0.992278 -0.0518012 -2.6832e-19)
(0.996194 -0.0450062 0)
(0.998979 -0.038345 -1.2494e-19)
(1.00076 -0.0318858 -1.18368e-19)
(1.00172 -0.0256347 -1.16013e-19)
(1.00198 -0.0195421 2.22805e-19)
(1.0012 -0.0137389 -2.163e-19)
(0.998127 -0.00888541 1.01174e-19)
(0.994765 -0.00592378 1.86011e-19)
(0.639691 -0.219511 0)
(0.69492 -0.198103 0)
(0.744428 -0.182132 0)
(0.787765 -0.169028 1.72779e-19)
(0.825031 -0.157551 -1.5774e-19)
(0.856892 -0.147025 0)
(0.88403 -0.137112 0)
(0.90709 -0.127638 0)
(0.926638 -0.118521 0)
(0.943158 -0.10971 -1.83589e-19)
(0.957054 -0.101167 1.73117e-19)
(0.968659 -0.0928426 -2.53143e-21)
(0.978242 -0.0846818 -3.01751e-19)
(0.986025 -0.076626 2.8515e-19)
(0.992194 -0.0686287 -5.43872e-19)
(0.996908 -0.060674 2.62382e-19)
(1.00031 -0.052791 0)
(1.00253 -0.0450495 0)
(1.0037 -0.0375224 3.51261e-19)
(1.00401 -0.0302175 -3.39892e-19)
(1.00365 -0.0230813 3.25404e-19)
(1.00216 -0.0163392 -2.10978e-19)
(0.997954 -0.0109978 -1.01829e-19)
(0.99343 -0.00796575 -2.54193e-19)
(0.638934 -0.25035 7.11439e-20)
(0.696864 -0.228474 1.14968e-19)
(0.748381 -0.210976 -5.04102e-19)
(0.793149 -0.195992 5.18018e-19)
(0.831422 -0.182563 -1.56343e-19)
(0.863969 -0.170123 -4.01139e-19)
(0.891539 -0.158377 -1.16393e-19)
(0.914828 -0.147171 -2.16006e-19)
(0.934441 -0.136423 0)
(0.950893 -0.126084 1.84039e-19)
(0.964611 -0.116109 0)
(0.975947 -0.106446 0)
(0.985184 -0.0970319 4.39269e-19)
(0.992552 -0.0877982 -4.22148e-19)
(0.998241 -0.0786846 -1.30446e-19)
(1.00241 -0.069656 2.55779e-19)
(1.00521 -0.0607212 0)
(1.00677 -0.0519364 -2.35432e-19)
(1.00723 -0.0433719 2.28331e-19)
(1.00681 -0.0350316 -1.08524e-19)
(1.0057 -0.0268589 -1.0738e-19)
(1.00338 -0.0191949 0)
(0.99788 -0.0134518 -9.79215e-20)
(0.992048 -0.0104261 -1.80209e-19)
(0.638508 -0.283324 -5.44852e-19)
(0.699624 -0.260612 0)
(0.753484 -0.241181 6.44746e-21)
(0.799892 -0.223959 -5.18397e-19)
(0.839288 -0.208296 3.62769e-21)
(0.872566 -0.193731 1.33358e-19)
(0.900571 -0.179998 2.40754e-19)
(0.924063 -0.166944 4.29176e-19)
(0.943695 -0.154481 -1.92784e-19)
(0.960021 -0.142553 0)
(0.973496 -0.131105 0)
(0.984492 -0.120077 1.51696e-19)
(0.993308 -0.109397 -1.4582e-19)
(1.00019 -0.0989884 0)
(1.00532 -0.0887757 2.57665e-19)
(1.00887 -0.0787052 -4.95145e-19)
(1.01099 -0.0687628 2.38585e-19)
(1.0118 -0.0589848 0)
(1.01146 -0.0494299 2.20548e-19)
(1.01018 -0.0400896 -1.05888e-19)
(1.0082 -0.0308991 0)
(1.00492 -0.0223298 0)
(0.998006 -0.0162652 -2.88808e-19)
(0.990731 -0.0133576 3.56492e-19)
(0.638412 -0.318728 6.15345e-19)
(0.703299 -0.294824 -4.56954e-19)
(0.759884 -0.272994 3.0233e-19)
(0.808155 -0.253084 8.76573e-20)
(0.848785 -0.234828 3.01534e-19)
(0.882832 -0.217871 2.59742e-19)
(0.911262 -0.201956 0)
(0.934918 -0.186915 -2.13281e-19)
(0.954513 -0.17264 4.74248e-21)
(0.970643 -0.159054 4.76353e-21)
(0.983799 -0.146088 1.58972e-19)
(0.994377 -0.13367 -3.17275e-21)
(1.00269 -0.121715 2.75511e-19)
(1.009 -0.110136 -2.66295e-19)
(1.01349 -0.0988436 1.23593e-19)
(1.01635 -0.0877661 1.20819e-19)
(1.0177 -0.0768661 -1.17675e-19)
(1.01769 -0.0661558 3.29908e-19)
(1.01644 -0.0556737 -3.22403e-19)
(1.01421 -0.0453882 1.05464e-19)
(1.01123 -0.0352167 -3.01491e-19)
(1.00684 -0.0257667 4.83723e-19)
(0.998428 -0.0194569 0)
(0.989578 -0.0167955 3.94314e-19)
(0.63867 -0.356909 1.30192e-19)
(0.708036 -0.331468 3.41873e-19)
(0.767783 -0.306698 -1.90187e-19)
(0.818149 -0.283553 3.37487e-19)
(0.860111 -0.262251 -2.94092e-19)
(0.894944 -0.242563 -1.29671e-19)
(0.923769 -0.224224 0)
(0.947531 -0.207027 0)
(0.967014 -0.190824 1.84399e-19)
(0.982867 -0.175505 2.64732e-22)
(0.995617 -0.160976 -1.59436e-19)
(1.00569 -0.147142 0)
(1.01342 -0.133906 -1.38267e-19)
(1.01906 -0.121165 2.54833e-19)
(1.02284 -0.108816 -3.67518e-19)
(1.02492 -0.0967691 3.48123e-19)
(1.02543 -0.0849654 -3.35336e-19)
(1.0245 -0.0733912 -3.61508e-21)
(1.02226 -0.0620585 -1.04656e-19)
(1.01896 -0.0509025 1.01107e-19)
(1.01486 -0.0398102 -4.83e-19)
(1.00925 -0.0295207 -1.00442e-19)
(0.999245 -0.0230366 -3.55624e-21)
(0.988691 -0.0207567 3.38299e-19)
(0.639338 -0.398257 -5.95593e-20)
(0.714051 -0.370938 1.15513e-19)
(0.777456 -0.342613 0)
(0.830153 -0.315575 0)
(0.873518 -0.290667 0)
(0.909119 -0.267824 -1.24317e-19)
(0.938274 -0.246761 -3.34847e-19)
(0.962055 -0.227204 2.05227e-19)
(0.981329 -0.208939 -5.42293e-19)
(0.996803 -0.191802 3.30646e-19)
(1.00905 -0.17566 -1.49514e-19)
(1.01851 -0.160389 -1.38474e-19)
(1.02556 -0.14587 -1.29178e-19)
(1.03046 -0.13198 0)
(1.03343 -0.118603 -1.1476e-19)
(1.03464 -0.10563 -1.12648e-19)
(1.03423 -0.0929807 1.09511e-19)
(1.03231 -0.0806163 -4.5124e-22)
(1.029 -0.0685198 -2.95044e-19)
(1.02453 -0.0565861 -4.74083e-19)
(1.01918 -0.0446591 6.4951e-19)
(1.01221 -0.0335941 -4.48226e-19)
(1.00057 -0.0270025 0)
(0.988182 -0.0252438 0)
(0.640513 -0.443188 0)
(0.721636 -0.41365 0)
(0.789269 -0.381081 0)
(0.844527 -0.349375 -3.16342e-19)
(0.889322 -0.320183 -4.11985e-19)
(0.925618 -0.293665 2.55753e-19)
(0.954989 -0.269513 3.24623e-19)
(0.978661 -0.247349 3.89561e-19)
(0.997597 -0.226862 5.69172e-21)
(1.01257 -0.207813 1.56012e-19)
(1.02418 -0.190007 1.5015e-19)
(1.03293 -0.173281 4.07273e-19)
(1.03918 -0.157483 -1.22732e-19)
(1.04324 -0.142468 0)
(1.04531 -0.128098 4.69193e-21)
(1.04558 -0.114249 -2.13461e-19)
(1.04417 -0.100818 3.07555e-19)
(1.04118 -0.0877423 -2.92081e-19)
(1.03671 -0.0749764 4.74113e-19)
(1.031 -0.0623721 -8.98878e-20)
(1.02428 -0.0497203 8.99934e-20)
(1.01585 -0.0379702 8.80431e-20)
(1.00251 -0.0313365 0)
(0.988172 -0.0302436 -3.36983e-19)
(0.642348 -0.49212 0)
(0.731186 -0.459997 1.03118e-19)
(0.803698 -0.422428 2.60869e-19)
(0.861732 -0.38517 6.24263e-19)
(0.90792 -0.350898 1.44565e-19)
(0.944761 -0.320085 3.54199e-19)
(0.974163 -0.292402 -4.20802e-19)
(0.997541 -0.267339 -1.92424e-19)
(1.01597 -0.244447 0)
(1.03027 -0.223377 -1.57908e-19)
(1.04112 -0.203856 1.4025e-19)
(1.04901 -0.185659 -2.65984e-19)
(1.05436 -0.168595 3.66317e-19)
(1.05746 -0.152487 -2.29796e-19)
(1.05855 -0.137173 -1.04076e-19)
(1.05778 -0.122508 6.12363e-19)
(1.05529 -0.108367 -2.90605e-19)
(1.05116 -0.0946668 0)
(1.04547 -0.081333 0)
(1.03843 -0.0681757 0)
(1.03025 -0.0549285 0)
(1.02025 -0.0426083 0)
(1.00519 -0.0360007 -4.07228e-19)
(0.988783 -0.0357247 3.86047e-19)
(0.645045 -0.545482 6.53723e-20)
(0.743226 -0.510267 -4.99637e-19)
(0.821351 -0.466904 -1.8177e-19)
(0.882348 -0.423121 -3.85216e-19)
(0.929801 -0.382874 -1.25683e-19)
(0.966933 -0.347051 -4.63797e-19)
(0.996086 -0.315324 3.10769e-19)
(1.01891 -0.287021 0)
(1.03659 -0.261513 -1.58002e-19)
(1.05004 -0.238303 0)
(1.05994 -0.21701 -1.31683e-19)
(1.06683 -0.197334 -1.2404e-19)
(1.07114 -0.179025 3.48164e-19)
(1.07317 -0.161869 -2.19168e-19)
(1.07316 -0.145673 0)
(1.07128 -0.130265 -9.95667e-20)
(1.06763 -0.1155 9.4887e-20)
(1.06229 -0.101271 -9.04942e-20)
(1.05533 -0.0874801 4.24258e-19)
(1.04689 -0.0738969 -2.45193e-19)
(1.03718 -0.0601982 0)
(1.02552 -0.0474437 0)
(1.00872 -0.0409344 8.01383e-20)
(0.990138 -0.0416345 -7.20385e-20)
(0.648867 -0.603787 0)
(0.758422 -0.564541 4.96591e-19)
(0.842974 -0.514541 -1.66428e-19)
(0.907073 -0.463235 7.3566e-20)
(0.955549 -0.416086 2.55567e-19)
(0.992586 -0.37448 0)
(1.02109 -0.338136 0)
(1.043 -0.306208 0)
(1.05964 -0.277845 3.1218e-19)
(1.07197 -0.252364 -1.4245e-19)
(1.08072 -0.229243 1.32588e-19)
(1.08644 -0.208082 1.17881e-19)
(1.08955 -0.188561 -1.11296e-19)
(1.09039 -0.170414 -2.05337e-19)
(1.08918 -0.15341 2.89703e-19)
(1.08608 -0.13735 -8.92665e-20)
(1.08121 -0.122062 8.50189e-20)
(1.0746 -0.107417 -8.61821e-20)
(1.06631 -0.0932906 -4.57211e-21)
(1.05643 -0.0794202 7.98477e-20)
(1.04513 -0.0654269 -2.23525e-19)
(1.03175 -0.052389 1.46966e-19)
(1.0132 -0.046051 -7.26312e-20)
(0.992348 -0.0478961 -2.02801e-19)
(0.654174 -0.667349 3.7848e-19)
(0.777598 -0.622682 3.52591e-19)
(0.86948 -0.564998 -2.9423e-19)
(0.936696 -0.505252 -2.53081e-19)
(0.985822 -0.450342 0)
(1.02224 -0.402195 0)
(1.04955 -0.360637 8.89116e-20)
(1.07008 -0.32467 1.5251e-19)
(1.08528 -0.293195 -2.13966e-19)
(1.09618 -0.265302 0)
(1.10352 -0.240294 1.16952e-19)
(1.10785 -0.217648 -1.08061e-19)
(1.10962 -0.196955 -1.00508e-19)
(1.10912 -0.177886 -9.40674e-20)
(1.1066 -0.160166 -9.45446e-20)
(1.1022 -0.143559 1.73292e-19)
(1.09602 -0.127867 -2.49593e-19)
(1.0881 -0.112934 2.34743e-19)
(1.07844 -0.0986125 -4.71467e-21)
(1.0671 -0.0846092 7.48257e-20)
(1.05418 -0.0704939 -6.89423e-20)
(1.03904 -0.0573356 7.50954e-20)
(1.01874 -0.0512331 -6.52848e-20)
(0.995502 -0.0544036 6.93009e-20)
(0.661473 -0.735856 -4.94695e-19)
(0.80181 -0.684136 -2.31571e-19)
(0.901853 -0.617382 5.01646e-19)
(0.972011 -0.548497 3.68355e-19)
(1.0213 -0.485178 -5.19719e-20)
(1.05643 -0.429859 4.4345e-20)
(1.08188 -0.38254 8.51251e-20)
(1.10041 -0.342124 -1.13057e-20)
(1.11369 -0.307274 7.03067e-20)
(1.12277 -0.276823 1.21545e-19)
(1.12839 -0.249871 -1.17989e-19)
(1.1311 -0.225744 1.089e-19)
(1.13131 -0.203926 1.47989e-19)
(1.12933 -0.184015 3.74027e-21)
(1.12538 -0.165681 8.62487e-20)
(1.11959 -0.148648 -3.09781e-21)
(1.11204 -0.132687 -2.31804e-19)
(1.10276 -0.117613 7.18169e-20)
(1.09171 -0.103257 -7.34491e-20)
(1.07891 -0.0892963 7.07368e-20)
(1.06436 -0.0752538 1.3281e-19)
(1.04745 -0.0621501 -6.23973e-20)
(1.02542 -0.0563198 -1.33456e-19)
(0.999664 -0.0610141 1.28456e-19)
(0.671423 -0.808258 -4.56219e-20)
(0.832311 -0.747553 1.7728e-20)
(0.940983 -0.669976 -1.95221e-20)
(1.01369 -0.591688 -1.14331e-19)
(1.06256 -0.519719 0)
(1.09567 -0.456893 -8.94665e-20)
(1.11847 -0.403424 -7.48207e-20)
(1.1343 -0.358218 -2.89317e-21)
(1.14505 -0.31975 -6.53943e-20)
(1.15183 -0.286604 -5.96801e-20)
(1.15537 -0.257655 0)
(1.15617 -0.232054 0)
(1.15461 -0.209163 -4.7178e-20)
(1.15098 -0.188493 8.45123e-20)
(1.14546 -0.169654 -8.01489e-20)
(1.13818 -0.152324 -7.55116e-20)
(1.1292 -0.13624 7.22105e-20)
(1.11852 -0.121188 3.56562e-20)
(1.10608 -0.106976 -1.98612e-19)
(1.09181 -0.0932614 7.40522e-22)
(1.07567 -0.0795203 -1.54721e-22)
(1.05705 -0.0666639 1.21072e-19)
(1.03335 -0.0610771 -3.02466e-20)
(1.00485 -0.0675313 0)
(0.685232 -0.883036 1.84371e-19)
(0.870279 -0.810428 -3.01022e-20)
(0.987389 -0.720022 -1.14136e-19)
(1.06208 -0.632716 -7.96535e-20)
(1.10994 -0.552507 0)
(1.14031 -0.482347 -3.0104e-20)
(1.15966 -0.422667 -3.35452e-20)
(1.17198 -0.372496 5.62938e-20)
(1.17952 -0.330243 -5.19908e-20)
(1.18345 -0.294294 0)
(1.18448 -0.263303 4.75003e-20)
(1.18305 -0.236239 -4.4481e-20)
(1.17947 -0.212327 2.08916e-21)
(1.17398 -0.190979 -3.90809e-20)
(1.16675 -0.171738 0)
(1.15788 -0.154235 3.34381e-20)
(1.14739 -0.13817 3.47378e-20)
(1.13527 -0.123306 -6.39356e-20)
(1.12143 -0.109427 6.15779e-20)
(1.10574 -0.0961876 -8.77797e-20)
(1.08808 -0.0830273 1.72902e-19)
(1.06786 -0.0706455 -1.12669e-19)
(1.04262 -0.065128 2.26412e-21)
(1.01103 -0.0736587 0)
(0.705917 -0.958635 -1.37278e-19)
(0.91679 -0.869093 -1.12411e-19)
(1.041 -0.763583 1.94316e-20)
(1.11696 -0.668523 3.3453e-20)
(1.16328 -0.581396 -2.75614e-20)
(1.19035 -0.504799 6.68488e-20)
(1.20557 -0.439362 0)
(1.21364 -0.38436 -8.30634e-20)
(1.21723 -0.338304 1.0128e-19)
(1.21771 -0.299509 -4.36409e-20)
(1.21574 -0.26646 -4.25367e-20)
(1.21169 -0.23795 -1.08583e-22)
(1.20581 -0.213061 7.71947e-20)
(1.19826 -0.191102 1.67419e-20)
(1.18917 -0.17154 0)
(1.17858 -0.153959 -3.36414e-20)
(1.16651 -0.138024 3.21104e-20)
(1.15289 -0.123473 -1.03931e-19)
(1.13762 -0.110087 4.319e-20)
(1.12051 -0.0975489 -2.62992e-20)
(1.1014 -0.0853097 9.40233e-20)
(1.07974 -0.0737007 -6.48854e-20)
(1.05324 -0.0677553 -2.7162e-20)
(1.01811 -0.0787958 9.34215e-21)
(0.738701 -1.03746 -1.44135e-20)
(0.969443 -0.917739 -6.89145e-21)
(1.09923 -0.795737 6.04958e-21)
(1.17657 -0.694978 3.17609e-20)
(1.22135 -0.603503 4.52438e-20)
(1.24511 -0.522282 -1.101e-20)
(1.25592 -0.452245 0)
(1.25922 -0.393006 -9.3107e-21)
(1.25824 -0.343392 9.07288e-21)
(1.25463 -0.301834 1.60967e-21)
(1.24913 -0.266761 -3.08614e-22)
(1.24207 -0.236836 -2.58244e-22)
(1.23358 -0.21101 1.65527e-20)
(1.22375 -0.188482 -1.69011e-20)
(1.21262 -0.168641 0)
(1.2002 -0.151016 3.61413e-20)
(1.18645 -0.135236 -2.12313e-20)
(1.17128 -0.121015 1.41593e-20)
(1.15453 -0.108143 1.99432e-20)
(1.13599 -0.0963828 6.11218e-21)
(1.11538 -0.0853005 -5.96535e-21)
(1.09217 -0.0747423 6.15806e-20)
(1.06458 -0.0674201 -7.03144e-20)
(1.02772 -0.0812666 4.26331e-20)
(0.780465 -1.13769 1.68515e-20)
(1.03875 -0.95223 2.76359e-22)
(1.1643 -0.814479 1.18166e-21)
(1.23929 -0.708817 -8.08754e-21)
(1.2822 -0.615951 -3.18069e-21)
(1.3031 -0.532597 -3.11583e-22)
(1.30984 -0.459766 -2.28387e-21)
(1.30832 -0.397418 9.05208e-21)
(1.30238 -0.344844 -9.41663e-21)
(1.29418 -0.300806 3.84449e-21)
(1.28466 -0.263841 0)
(1.27415 -0.232571 7.58278e-21)
(1.26273 -0.20585 2.06708e-22)
(1.25039 -0.182776 1.75683e-22)
(1.23708 -0.162653 -1.34761e-20)
(1.22274 -0.144944 -7.06176e-21)
(1.20728 -0.12923 -6.79985e-21)
(1.19054 -0.115197 -1.04414e-22)
(1.17233 -0.102626 -1.24025e-20)
(1.15233 -0.0913285 -6.25248e-21)
(1.13006 -0.0809632 -6.07604e-21)
(1.10468 -0.0714002 -3.24633e-22)
(1.07507 -0.0651173 -1.85565e-20)
(1.04074 -0.0781706 1.09926e-20)
(0.0397148 -0.0175026 1.30005e-19)
(0.0418212 -0.0691112 8.79787e-21)
(0.0527482 -0.185883 -4.55106e-21)
(0.0589175 -0.251796 -7.00548e-20)
(0.0732148 -0.410036 -4.06245e-20)
(0.0551194 -0.313595 5.53533e-20)
(0.0249711 -0.0456104 -1.19177e-19)
(0.0244709 -0.107589 0)
(0.0309527 -0.211935 -1.39444e-19)
(0.0336189 -0.278394 5.80818e-20)
(0.050972 -0.376327 1.55109e-19)
(0.0524105 -0.317693 -1.45081e-19)
(0.0178334 -0.0563147 4.3566e-19)
(0.00800619 -0.122512 -3.1197e-19)
(0.00916756 -0.214691 9.64572e-20)
(0.0109079 -0.275606 -1.47074e-20)
(0.0301942 -0.336027 -7.41546e-20)
(0.0462711 -0.304223 9.32032e-20)
(0.00873171 -0.0643442 -4.55002e-19)
(-0.0080252 -0.131905 3.15688e-19)
(-0.0121083 -0.211473 -2.50777e-19)
(-0.0102868 -0.265851 -2.17297e-19)
(0.0133435 -0.30848 -1.9391e-19)
(0.0525287 -0.29537 1.77687e-19)
(-0.00910716 -0.069552 0)
(-0.0238939 -0.13426 0)
(-0.0323103 -0.204578 2.40357e-19)
(-0.0304737 -0.253505 -2.16831e-21)
(-0.00456705 -0.286558 3.79636e-19)
(0.0467314 -0.285406 -1.73693e-19)
(-0.0210006 -0.069103 9.52375e-19)
(-0.0392761 -0.131542 1.87158e-20)
(-0.0516749 -0.195179 0)
(-0.0503535 -0.24001 2.05851e-19)
(-0.0236915 -0.268072 -5.62948e-19)
(0.0318129 -0.273196 -3.47291e-19)
(-0.0338102 -0.0665171 -9.77787e-19)
(-0.0543371 -0.1259 -5.89831e-19)
(-0.0705662 -0.184285 5.92071e-20)
(-0.0705734 -0.226115 1.77394e-21)
(-0.0448445 -0.251859 3.23699e-19)
(0.0110174 -0.26027 2.543e-19)
(-0.0458453 -0.0626777 9.52588e-19)
(-0.0689642 -0.118582 1.30155e-20)
(-0.0890767 -0.172663 0)
(-0.0913002 -0.212271 0)
(-0.0679305 -0.236985 3.70847e-19)
(-0.0147363 -0.247344 0)
(-0.0562692 -0.0579641 -1.01123e-18)
(-0.0828961 -0.110389 5.86836e-19)
(-0.107101 -0.160814 0)
(-0.112403 -0.1987 0)
(-0.0926199 -0.222885 2.8624e-21)
(-0.0442042 -0.234357 -2.57185e-19)
(-0.0647345 -0.0525592 -3.09915e-20)
(-0.095833 -0.101799 1.75826e-20)
(-0.124419 -0.149005 0)
(-0.133594 -0.185451 -5.11268e-20)
(-0.11844 -0.209208 -2.2728e-19)
(-0.0762648 -0.221126 6.00444e-19)
(-0.0710939 -0.0465168 1.54281e-20)
(-0.107494 -0.0930647 5.66685e-19)
(-0.140756 -0.137334 0)
(-0.154511 -0.17246 -5.10816e-20)
(-0.144841 -0.195699 4.49108e-20)
(-0.109933 -0.207509 -2.53958e-19)
(-0.0752916 -0.0398328 -1.54708e-20)
(-0.117605 -0.0842714 -5.63469e-19)
(-0.155808 -0.125777 0)
(-0.17476 -0.159574 1.02253e-19)
(-0.17129 -0.182134 -8.97379e-20)
(-0.144295 -0.19341 0)
(-0.077337 -0.0325111 1.55182e-20)
(-0.12588 -0.0754236 -5.69141e-19)
(-0.169261 -0.114233 0)
(-0.193952 -0.146602 -4.02585e-19)
(-0.197236 -0.168311 -3.6609e-19)
(-0.17856 -0.178747 -2.55012e-19)
(-0.0772572 -0.0245805 3.15013e-20)
(-0.132013 -0.0664975 5.53775e-19)
(-0.180759 -0.102544 0)
(-0.211735 -0.133334 3.52124e-19)
(-0.222131 -0.15406 4.10569e-19)
(-0.212016 -0.163444 3.41296e-19)
(-0.0750761 -0.0161455 -3.16397e-20)
(-0.135688 -0.0574275 5.98258e-19)
(-0.189943 -0.0905248 5.94782e-20)
(-0.227675 -0.119493 -1.01841e-19)
(-0.245553 -0.139288 3.16745e-19)
(-0.244014 -0.14741 8.33027e-20)
(-0.0707745 -0.00738646 -1.03789e-18)
(-0.136593 -0.0481002 1.93166e-20)
(-0.196466 -0.0779525 0)
(-0.241221 -0.104858 5.23331e-20)
(-0.267243 -0.12375 -4.56891e-20)
(-0.273993 -0.130621 -2.52222e-19)
(-0.0642714 0.00143437 1.0096e-18)
(-0.134418 -0.0383651 7.16964e-22)
(-0.199957 -0.0645895 -4.87304e-19)
(-0.251785 -0.0892126 0)
(-0.286658 -0.107204 -3.69444e-19)
(-0.301778 -0.112949 3.36942e-19)
(-0.0554402 0.00993983 0)
(-0.128854 -0.0280399 -5.78659e-19)
(-0.20002 -0.0502154 5.32798e-19)
(-0.258786 -0.0722623 -1.07067e-19)
(-0.302863 -0.0893725 4.62423e-20)
(-0.327347 -0.0943877 2.51571e-19)
(-0.0441532 0.0175887 -5.12648e-19)
(-0.119581 -0.0169087 0)
(-0.1962 -0.0346147 0)
(-0.261805 -0.053771 -5.57691e-20)
(-0.315203 -0.0699041 -1.44645e-19)
(-0.34954 -0.0746778 -3.44656e-19)
(-0.0302249 0.0238703 -3.9709e-23)
(-0.106241 -0.00473783 0)
(-0.18794 -0.0175963 0)
(-0.259864 -0.0334085 0)
(-0.323198 -0.0483696 1.97723e-19)
(-0.368229 -0.0533924 1.76055e-19)
(-0.0129525 0.032431 9.69875e-19)
(-0.0883251 0.0085312 -3.50635e-19)
(-0.174564 0.000855263 0)
(-0.251576 -0.0109388 0)
(-0.325446 -0.0241237 -5.24575e-20)
(-0.383724 -0.0298035 -9.07225e-20)
(-0.00388053 0.0358443 -4.42934e-19)
(-0.0655806 0.0219969 3.60657e-19)
(-0.155063 0.0202648 0)
(-0.234653 0.0137608 -3.18199e-20)
(-0.319102 0.00395901 -8.17799e-20)
(-0.396074 -0.00133385 4.92713e-20)
(0.00468358 0.0377875 0)
(-0.0388083 0.0356254 1.00613e-19)
(-0.126413 0.0395727 1.00113e-19)
(-0.204347 0.0403592 -8.3036e-20)
(-0.296546 0.0388949 1.43659e-19)
(-0.403657 0.0393805 -2.49099e-20)
(0.0188691 0.0416685 -8.96792e-21)
(-0.0020526 0.0485124 -9.92602e-20)
(-0.0781146 0.0622396 -8.92399e-20)
(-0.150139 0.0736276 6.55143e-20)
(-0.241292 0.0751868 2.34816e-20)
(-0.40353 0.0493359 -1.35817e-20)
(0.787153 -0.900747 3.25738e-20)
(1.08555 -0.904398 -2.44097e-21)
(1.22641 -0.804624 -1.09222e-21)
(1.30066 -0.706006 8.30463e-22)
(1.3428 -0.616091 -3.77886e-22)
(1.36203 -0.533876 -1.40667e-21)
(1.36575 -0.46044 1.72998e-21)
(1.36 -0.396499 7.90234e-22)
(1.34921 -0.341914 -7.78637e-21)
(1.33616 -0.295922 5.61195e-21)
(1.32222 -0.25734 0)
(1.30788 -0.224871 6.25982e-21)
(1.29322 -0.197335 6.49781e-21)
(1.27814 -0.173756 -5.54913e-21)
(1.26253 -0.15336 -1.76365e-20)
(1.24624 -0.13554 1.65555e-20)
(1.2291 -0.119832 -4.73189e-22)
(1.21087 -0.105894 -5.74854e-22)
(1.19126 -0.0935007 4.82119e-21)
(1.16978 -0.082449 -2.0453e-22)
(1.14571 -0.0724827 4.67422e-21)
(1.11809 -0.0642381 4.40958e-21)
(1.08634 -0.0619443 1.53677e-20)
(1.05127 -0.0719077 2.11625e-23)
(0.59194 -0.531263 -1.35509e-19)
(1.07823 -0.795197 0)
(1.26622 -0.760734 -4.23014e-20)
(1.35306 -0.683896 2.62303e-20)
(1.39836 -0.602557 0)
(1.41876 -0.524871 6.32341e-22)
(1.42144 -0.4531 1.0093e-21)
(1.4128 -0.389237 3.28752e-22)
(1.39788 -0.333831 -8.92503e-21)
(1.38015 -0.286651 6.76599e-21)
(1.36162 -0.246904 -6.75138e-21)
(1.34316 -0.2135 0)
(1.32495 -0.185317 -1.81424e-20)
(1.30692 -0.161354 1.79043e-20)
(1.28887 -0.14079 1.14093e-20)
(1.27057 -0.122979 4.55264e-21)
(1.25174 -0.10744 -3.31829e-20)
(1.23207 -0.0938478 -3.36822e-20)
(1.21109 -0.0820031 4.78966e-21)
(1.18819 -0.0717229 8.69548e-21)
(1.16251 -0.0628312 -1.33971e-20)
(1.13311 -0.0563709 -1.33616e-20)
(1.09954 -0.0568837 -4.19737e-20)
(1.06144 -0.0656359 7.97479e-21)
(0.378455 -0.318901 1.2077e-19)
(0.978818 -0.641453 1.45079e-19)
(1.26182 -0.689098 6.58376e-20)
(1.38597 -0.644646 -4.66715e-20)
(1.44403 -0.576365 -5.48217e-20)
(1.46986 -0.505146 1.03291e-20)
(1.47438 -0.437093 -1.24932e-20)
(1.46486 -0.374873 -1.13583e-20)
(1.44711 -0.319896 -9.34536e-23)
(1.42539 -0.272454 0)
(1.40246 -0.232169 6.81609e-21)
(1.37975 -0.19824 0)
(1.35778 -0.169686 8.27993e-21)
(1.33657 -0.145549 -8.64714e-21)