/*--------------------------------*- C++ -*----------------------------------*\
  =========                 |
  \\      /  F ield         | OpenFOAM: The Open Source CFD Toolbox
   \\    /   O peration     | Website:  https://openfoam.org
    \\  /    A nd           | Version:  11
     \\/     M anipulation  |
\*---------------------------------------------------------------------------*/
FoamFile
{
    format      ascii;
    class       surfaceVectorField;
    location    "2";
    object      Uf;
}
// * * * * * * * * * * * * * * * * * * * * * * * * * * * * * * * * * * * * * //

dimensions      [0 1 -1 0 0 0 0];

internalField   nonuniform List<vector> 
5640
(
(0.111249 -0.0565891 -1.38896e-19)
(0.0765127 -0.05585 -1.58351e-20)
(0.295907 -0.0858472 -8.29724e-21)
(0.242004 -0.0945656 2.71499e-30)
(0.448532 -0.103564 5.39369e-20)
(0.432586 -0.111523 1.27367e-19)
(0.550106 -0.112216 9.85388e-20)
(0.529361 -0.120893 1.08279e-20)
(0.610751 -0.113975 9.54216e-22)
(0.586761 -0.127475 -9.66325e-20)
(0.610891 -0.12101 8.18642e-20)
(0.615993 -0.0876021 -6.67323e-20)
(0.188942 -0.0972335 1.24371e-19)
(0.122557 -0.0804686 -3.11358e-19)
(0.371549 -0.122966 1.30244e-19)
(0.303419 -0.13029 3.22002e-19)
(0.494165 -0.133763 8.95551e-20)
(0.463055 -0.143349 4.16169e-20)
(0.569412 -0.136253 -1.81636e-19)
(0.541823 -0.146416 -4.07388e-20)
(0.612004 -0.128715 -2.66767e-20)
(0.590588 -0.1457 -7.0792e-20)
(0.615941 -0.129503 4.22356e-20)
(0.62662 -0.100612 2.31268e-19)
(0.220037 -0.120646 -1.50266e-19)
(0.151802 -0.106979 2.93887e-20)
(0.391632 -0.154206 2.4287e-19)
(0.331185 -0.163107 1.68107e-22)
(0.499922 -0.159825 -8.89914e-20)
(0.467401 -0.173003 1.48317e-19)
(0.565046 -0.157066 7.2235e-20)
(0.537423 -0.170289 2.01069e-19)
(0.603969 -0.14544 -3.42297e-21)
(0.584265 -0.163973 2.11975e-19)
(0.612467 -0.143807 -1.91022e-19)
(0.627077 -0.117788 -1.59628e-19)
(0.246438 -0.14282 1.69044e-19)
(0.179251 -0.133441 4.47972e-19)
(0.402562 -0.182278 -1.03034e-19)
(0.351326 -0.191205 -3.23432e-19)
(0.498138 -0.184914 4.35396e-19)
(0.465964 -0.200294 1.28386e-20)
(0.557549 -0.1776 3.4137e-19)
(0.530736 -0.193458 1.89284e-19)
(0.596081 -0.162836 3.40373e-20)
(0.576503 -0.183466 -1.34189e-19)
(0.607516 -0.161813 -5.70052e-21)
(0.624139 -0.136472 -1.44525e-19)
(0.271076 -0.175373 0)
(0.203787 -0.159159 -9.21873e-19)
(0.408904 -0.208447 -2.21458e-19)
(0.364231 -0.21564 -1.8446e-20)
(0.493852 -0.209434 -2.3865e-19)
(0.462288 -0.225593 -2.31301e-19)
(0.549744 -0.19919 -2.77073e-19)
(0.52345 -0.216581 -1.69584e-19)
(0.588903 -0.18265 -1.76785e-19)
(0.568707 -0.204477 1.23946e-19)
(0.60248 -0.182648 3.45779e-19)
(0.620603 -0.157708 1.08259e-19)
(0.288117 -0.198621 -9.92443e-19)
(0.225351 -0.18312 1.91111e-20)
(0.411967 -0.23234 -1.92309e-20)
(0.371879 -0.237326 5.43366e-19)
(0.488385 -0.23325 -1.64148e-19)
(0.457392 -0.249333 -5.19211e-20)
(0.541923 -0.221797 2.23263e-19)
(0.515796 -0.24002 -1.68698e-19)
(0.582258 -0.20468 6.41061e-19)
(0.561078 -0.227135 1.78548e-19)
(0.597659 -0.205946 5.9129e-20)
(0.617163 -0.181227 2.65078e-19)
(0.301122 -0.219471 1.52899e-18)
(0.243865 -0.204738 3.81026e-20)
(0.412326 -0.254121 5.36007e-19)
(0.375784 -0.256624 5.44024e-19)
(0.482066 -0.256568 -5.2114e-20)
(0.451501 -0.271904 -5.19211e-20)
(0.534074 -0.245462 -2.23188e-19)
(0.507761 -0.263987 1.18883e-21)
(0.575984 -0.228719 -4.00374e-19)
(0.553584 -0.251511 -4.86973e-19)
(0.593077 -0.231539 -1.68189e-19)
(0.613949 -0.206824 -2.27137e-19)
(0.311247 -0.238458 -9.75468e-19)
(0.259298 -0.223612 5.65919e-20)
(0.410481 -0.274215 -1.81618e-20)
(0.376631 -0.273839 -5.61981e-19)
(0.474946 -0.279653 0)
(0.444571 -0.293601 0)
(0.5261 -0.270278 -2.49101e-19)
(0.499242 -0.288617 0)
(0.569921 -0.254716 -2.6243e-19)
(0.5461 -0.277654 -2.55123e-19)
(0.588659 -0.259373 1.60839e-19)
(0.61096 -0.234454 0)
(0.318537 -0.25519 5.05018e-19)
(0.271613 -0.239397 9.90853e-19)
(0.406566 -0.292985 -5.67435e-19)
(0.374614 -0.289329 -5.60463e-19)
(0.466939 -0.302697 0)
(0.436441 -0.314675 0)
(0.517838 -0.296324 1.11321e-21)
(0.490084 -0.313992 3.704e-20)
(0.563908 -0.282709 1.58156e-19)
(0.538438 -0.305622 1.57021e-19)
(0.58428 -0.289483 -2.0785e-19)
(0.608144 -0.26419 2.17725e-19)
(0.322851 -0.269475 1.59332e-20)
(0.280607 -0.251884 1.44586e-20)
(0.400544 -0.310721 -1.68773e-20)
(0.369811 -0.303407 -5.25867e-19)
(0.457875 -0.325865 3.57886e-20)
(0.426923 -0.335343 0)
(0.509091 -0.323667 1.89341e-19)
(0.480083 -0.340173 7.3437e-20)
(0.557755 -0.312775 -2.00337e-19)
(0.530377 -0.335476 1.24685e-19)
(0.579789 -0.321978 -2.10178e-19)
(0.605421 -0.296178 -6.57199e-19)
(0.323972 -0.281339 -4.95538e-19)
(0.285917 -0.261044 -2.20553e-23)
(0.392383 -0.327653 -5.31367e-19)
(0.362301 -0.31631 -3.87437e-21)
(0.447559 -0.349275 3.51674e-20)
(0.415834 -0.35576 0)
(0.499621 -0.352365 6.77552e-21)
(0.468999 -0.367196 -3.54553e-20)
(0.551251 -0.345015 1.22933e-19)
(0.521662 -0.367273 3.06604e-20)
(0.575018 -0.35702 1.58674e-19)
(0.602705 -0.330625 4.42098e-19)
(0.321701 -0.290961 4.9176e-19)
(0.287133 -0.266996 -6.93313e-24)
(0.382046 -0.343942 5.27213e-19)
(0.35217 -0.328199 1.01326e-18)
(0.435783 -0.372997 -6.94249e-20)
(0.402988 -0.376029 0)
(0.489163 -0.382454 -1.29646e-20)
(0.456559 -0.395068 2.19349e-19)
(0.544171 -0.379551 6.33334e-20)
(0.512009 -0.401065 3.00914e-19)
(0.569787 -0.394814 1.53292e-19)
(0.599907 -0.367788 5.42782e-20)
(0.315488 -0.298939 4.63039e-19)
(0.283777 -0.269933 -4.3336e-20)
(0.369555 -0.359646 5.29169e-19)
(0.339577 -0.339272 1.20798e-20)
(0.422281 -0.397101 2.81363e-19)
(0.388181 -0.396153 0)
(0.47742 -0.413957 5.31727e-19)
(0.442475 -0.423775 3.54597e-20)
(0.536264 -0.416511 3.94412e-19)
(0.501097 -0.436878 -3.07357e-20)
(0.563886 -0.435583 -4.99049e-20)
(0.596941 -0.407963 1.54672e-19)
(0.306517 -0.304035 -4.98588e-19)
(0.275783 -0.270346 1.3253e-22)
(0.354634 -0.375011 -5.16353e-19)
(0.324311 -0.349376 -1.03475e-18)
(0.406916 -0.421462 -2.47078e-19)
(0.371323 -0.416118 -4.54285e-20)
(0.464055 -0.44686 -5.2568e-19)
(0.426409 -0.453196 -1.83013e-19)
(0.527246 -0.45602 -4.74808e-19)
(0.488557 -0.4747 -4.79404e-19)
(0.557066 -0.479567 -2.54955e-19)
(0.593722 -0.451465 -2.37144e-19)
(0.293381 -0.307794 -4.76067e-19)
(0.262991 -0.268432 9.9519e-19)
(0.337403 -0.389759 -6.05928e-19)
(0.306514 -0.35856 -5.5925e-19)
(0.389388 -0.446038 2.26688e-20)
(0.352275 -0.435714 -4.54285e-20)
(0.448709 -0.481062 -1.29478e-19)
(0.408055 -0.483111 3.70951e-20)
(0.51678 -0.49817 -2.64933e-19)
(0.473967 -0.514419 -1.77e-19)
(0.549002 -0.526979 9.63657e-20)
(0.590125 -0.498651 -6.01793e-20)
(0.276487 -0.309911 1.00523e-18)
(0.245484 -0.264407 2.79872e-20)
(0.317809 -0.403782 -2.04245e-20)
(0.286304 -0.366589 -2.30191e-20)
(0.369528 -0.470502 -3.44056e-20)
(0.330981 -0.454559 3.85225e-19)
(0.431001 -0.516319 -4.30189e-21)
(0.387091 -0.513098 -3.56086e-20)
(0.504459 -0.542956 1.77811e-19)
(0.45684 -0.555717 2.71145e-19)
(0.539295 -0.57791 -4.84766e-20)
(0.586025 -0.549845 2.01704e-19)
(0.25601 -0.310287 -9.95896e-19)
(0.223578 -0.258311 -9.38768e-19)
(0.295933 -0.416659 3.65549e-19)
(0.263865 -0.372942 5.33936e-19)
(0.347172 -0.494329 3.9824e-19)
(0.307445 -0.471982 -3.27273e-20)
(0.410522 -0.552139 2.31917e-19)
(0.363198 -0.542464 7.55101e-20)
(0.489794 -0.59014 5.23118e-20)
(0.436609 -0.59797 2.07433e-19)
(0.527419 -0.632159 -3.40965e-19)
(0.581259 -0.605295 -2.29424e-19)
(0.232278 -0.308538 5.06451e-19)
(0.197921 -0.249716 4.80193e-19)
(0.271908 -0.427628 1.62122e-19)
(0.239446 -0.376687 5.37458e-19)
(0.322169 -0.516658 -3.6037e-19)
(0.281705 -0.486925 -4.18107e-19)
(0.386808 -0.587673 4.66197e-20)
(0.336078 -0.570065 1.12839e-19)
(0.472177 -0.639123 -1.72697e-19)
(0.412595 -0.640111 5.7588e-20)
(0.512575 -0.689163 4.81406e-20)
(0.575618 -0.665004 -1.46046e-20)
(0.205841 -0.303699 5.07896e-19)
(0.169586 -0.237264 4.8237e-19)
(0.245881 -0.435443 0)
(0.213294 -0.376308 0)
(0.294384 -0.536097 3.60677e-20)
(0.253858 -0.497702 0)
(0.35931 -0.621519 1.23925e-19)
(0.305392 -0.594229 3.73288e-20)
(0.450742 -0.688785 2.7887e-19)
(0.383969 -0.680345 -3.56567e-20)
(0.493489 -0.747977 9.99395e-20)
(0.568709 -0.728624 1.83609e-20)
(0.177367 -0.293815 2.05537e-21)
(0.139996 -0.218445 -9.77426e-19)
(0.217916 -0.438123 0)
(0.185539 -0.369455 3.27191e-19)
(0.263617 -0.550523 0)
(0.223992 -0.501736 0)
(0.327283 -0.651597 -1.2073e-19)
(0.270617 -0.612828 0)
(0.424198 -0.737226 -2.17627e-19)
(0.349731 -0.715682 -9.45569e-20)
(0.468065 -0.807274 -4.25044e-20)
(0.559811 -0.795466 -1.27077e-19)
(0.147385 -0.275835 -7.26738e-19)
(0.110547 -0.19055 -4.94645e-19)
(0.18795 -0.43276 3.41114e-19)
(0.156028 -0.352805 -7.23688e-21)
(0.229654 -0.557095 0)
(0.191941 -0.495462 0)
(0.289959 -0.674971 2.88242e-20)
(0.231037 -0.623421 2.17047e-20)
(0.390746 -0.781498 8.0651e-20)
(0.308576 -0.741477 7.9903e-20)
(0.432488 -0.866301 2.97545e-20)
(0.547855 -0.864953 1.44174e-19)
(0.117267 -0.246801 1.93313e-19)
(0.0823544 -0.152417 4.81807e-19)
(0.156484 -0.41581 -3.47658e-19)
(0.124269 -0.321724 -4.26143e-19)
(0.192822 -0.552357 2.09714e-20)
(0.157149 -0.473363 -8.34791e-20)
(0.247178 -0.687683 7.08033e-20)
(0.18589 -0.623384 8.57417e-20)
(0.348261 -0.818043 3.18794e-20)
(0.25861 -0.749015 -4.00639e-20)
(0.378737 -0.931815 -5.54256e-21)
(0.531815 -0.93926 -6.29787e-20)
(0.0898926 -0.203884 -8.7329e-20)
(0.0571777 -0.0976426 -2.11259e-21)
(0.125583 -0.381731 -1.76546e-19)
(0.0904806 -0.256856 7.55524e-21)
(0.155174 -0.531108 -2.67193e-20)
(0.11902 -0.414063 -5.15827e-21)
(0.199504 -0.681462 -2.32529e-20)
(0.13581 -0.604148 6.02719e-21)
(0.289068 -0.843191 -8.63849e-20)
(0.195413 -0.708905 -9.71972e-20)
(0.288294 -1.02778 1.24735e-20)
(0.505235 -1.03564 1.09129e-20)
(0.0620317 -0.125223 9.32352e-20)
(0.0865457 -0.294408 1.81473e-19)
(0.10013 -0.466375 2.93338e-20)
(0.131009 -0.61608 -6.16732e-20)
(0.194678 -0.83494 -7.66328e-21)
(0.453688 -1.19297 1.53499e-20)
(0.671537 -0.0354615 -4.3236e-20)
(0.650172 -0.0590516 8.41638e-20)
(0.642395 -0.0351372 1.08586e-20)
(0.718601 -0.0128894 -4.33729e-21)
(0.696632 -0.0302944 -4.24832e-21)
(0.694573 -0.00693503 -8.64829e-21)
(0.75974 -0.0037952 -1.10269e-20)
(0.740724 -0.0179559 5.32e-20)
(0.740975 0.00499876 0)
(0.795362 0.00014308 3.4111e-21)
(0.778739 -0.0120256 -5.66996e-20)
(0.779548 0.0101317 -3.99588e-20)
(0.82616 0.00153584 6.59203e-21)
(0.811765 -0.00934945 1.50929e-20)
(0.812668 0.0117879 2.51119e-20)
(0.852789 0.00174356 -5.0072e-21)
(0.840379 -0.00821906 -2.62836e-20)
(0.84119 0.0117769 -2.2102e-20)
(0.875828 0.00143863 2.53738e-20)
(0.865146 -0.00777353 -2.71852e-20)
(0.86582 0.0110184 1.2131e-20)
(0.895774 0.000936502 8.60301e-21)
(0.886583 -0.00760986 3.59907e-20)
(0.887113 0.00995424 3.59989e-20)
(0.913049 0.000387214 -1.36398e-20)
(0.905149 -0.00754242 -6.6043e-20)
(0.905545 0.00879319 -2.00565e-20)
(0.928009 -0.000133316 -5.82578e-21)
(0.921228 -0.00747833 2.45819e-20)
(0.921505 0.00764077 -2.47141e-22)
(0.940949 -0.000584921 -5.81936e-21)
(0.935141 -0.00736781 -2.84844e-20)
(0.935316 0.00655155 -1.15268e-20)
(0.95211 -0.000946584 0)
(0.947155 -0.00718143 0)
(0.947245 0.00555208 0)
(0.961691 -0.00121121 -9.59604e-21)
(0.957491 -0.00690337 -4.04441e-20)
(0.957513 0.00465267 0)
(0.969857 -0.00138391 1.79352e-20)
(0.966331 -0.00653067 2.91074e-20)
(0.966299 0.00385191 -1.9372e-20)
(0.976751 -0.00147887 1.03416e-20)
(0.973831 -0.00607417 4.64211e-20)
(0.973756 0.00314035 4.66071e-20)
(0.982502 -0.0015133 -9.93014e-22)
(0.980121 -0.00555553 -9.3519e-21)
(0.980015 0.00250573 -4.48619e-20)
(0.987231 -0.00150064 9.16147e-21)
(0.985323 -0.00499919 -4.28943e-20)
(0.985198 0.00193867 1.7275e-20)
(0.991054 -0.00144648 1.54562e-20)
(0.989553 -0.00442242 -6.59477e-20)
(0.989421 0.00143585 -2.48106e-20)
(0.994076 -0.001349 2.40979e-20)
(0.992923 -0.00383042 3.19819e-20)
(0.992797 0.000999014 4.78859e-20)
(0.996389 -0.00120108 -7.35515e-21)
(0.995537 -0.0032174 1.52597e-20)
(0.995428 0.000631829 -2.30615e-20)
(0.998068 -0.000993009 2.80591e-20)
(0.997484 -0.00256964 -2.95046e-20)
(0.997397 0.000338471 -2.96001e-20)
(0.999177 -0.00072084 2.90691e-20)
(0.99881 -0.00187519 1.43813e-20)
(0.998759 0.00012537 5.00338e-20)
(0.999786 -0.000398088 -8.16508e-22)
(0.999528 -0.00115085 -6.89519e-20)
(0.999559 2.30036e-06 -1.38309e-20)
(0.999782 -0.000440953 -1.21976e-20)
(0.999927 -2.68703e-05 -2.47712e-20)
(0.672633 -0.0566517 1.26377e-19)
(0.649408 -0.0804839 2.6494e-20)
(0.718214 -0.0359355 5.20858e-20)
(0.696207 -0.0536276 -1.09456e-19)
(0.758944 -0.0263856 9.57085e-21)
(0.739825 -0.0411134 -2.55378e-20)
(0.794594 -0.0215879 -4.6224e-20)
(0.77805 -0.0344501 2.3167e-20)
(0.82557 -0.0191272 -1.71506e-20)
(0.811365 -0.0307519 7.9189e-20)
(0.852405 -0.0177427 -4.84572e-20)
(0.840269 -0.0284493 -5.2159e-20)
(0.875633 -0.0168228 -1.73826e-20)
(0.865283 -0.026766 3.27722e-20)
(0.895742 -0.0160875 -3.74359e-20)
(0.886923 -0.0253447 7.17856e-20)
(0.913152 -0.0154061 -2.88322e-20)
(0.905647 -0.0240238 2.62649e-20)
(0.92822 -0.014711 2.47792e-21)
(0.921846 -0.0227228 2.47049e-20)
(0.941241 -0.0139628 -2.29446e-20)
(0.935843 -0.0213954 1.84966e-23)
(0.95246 -0.0131369 -4.00692e-20)
(0.94791 -0.0200105 0)
(0.962079 -0.0122219 -2.3673e-21)
(0.95827 -0.0185467 -2.02081e-20)
(0.970265 -0.0112207 5.74421e-20)
(0.967111 -0.0169956 1.94928e-20)
(0.977163 -0.0101516 2.71923e-20)
(0.97459 -0.0153667 3.6974e-20)
(0.982902 -0.0090432 -5.09968e-20)
(0.980841 -0.0136884 -4.44402e-20)
(0.987605 -0.00792329 -1.17834e-19)
(0.985986 -0.0119989 -4.30397e-20)
(0.991388 -0.00680871 -5.00868e-20)
(0.990142 -0.0103304 -7.39045e-20)
(0.994356 -0.00570118 2.32562e-20)
(0.993422 -0.00869725 2.38814e-20)
(0.996601 -0.00458893 -6.60153e-21)
(0.995938 -0.00709327 -3.02897e-20)
(0.998203 -0.00345469 -4.34478e-20)
(0.997781 -0.00549733 -7.38991e-21)
(0.999227 -0.00230176 -8.31288e-20)
(0.998964 -0.00389797 -6.38138e-20)
(0.999751 -0.00118196 -8.12974e-20)
(0.99941 -0.00234655 2.01549e-20)
(0.99934 -0.000923004 -6.06822e-21)
(0.671454 -0.0788014 -2.06676e-19)
(0.647396 -0.102424 -9.76075e-20)
(0.717025 -0.0593466 -1.88951e-19)
(0.695041 -0.0776472 1.44482e-20)
(0.758139 -0.0494152 -1.28595e-20)
(0.738959 -0.0649166 -7.8854e-20)
(0.794249 -0.0437184 1.47688e-19)
(0.777795 -0.0574174 6.86749e-20)
(0.82564 -0.0401246 4.61761e-20)
(0.811635 -0.0525908 -3.90815e-20)
(0.852811 -0.0375025 2.78756e-20)
(0.840961 -0.0490277 3.56634e-20)
(0.876302 -0.035309 1.2144e-19)
(0.866299 -0.046039 3.19112e-20)
(0.896609 -0.0332978 1.36032e-19)
(0.888182 -0.0433084 -1.36295e-22)
(0.914164 -0.031355 7.98177e-20)
(0.907079 -0.0406937 2.63185e-20)
(0.929328 -0.0294202 2.25025e-20)
(0.923391 -0.0381241 0)
(0.942404 -0.0274545 2.29629e-20)
(0.93745 -0.0355562 2.27397e-20)
(0.953642 -0.02543 2.00471e-20)
(0.949534 -0.0329565 -4.20814e-20)
(0.963249 -0.0233289 1.28775e-21)
(0.959873 -0.0302978 2.02346e-20)
(0.971396 -0.0211499 -1.1212e-21)
(0.968659 -0.0275645 1.86271e-20)
(0.978231 -0.0189127 -3.39976e-20)
(0.976053 -0.0247618 1.84878e-20)
(0.983886 -0.0166543 -3.64939e-20)
(0.982194 -0.0219208 -1.78309e-20)
(0.988486 -0.0144166 1.11012e-21)
(0.987206 -0.0190908 1.70916e-20)
(0.992146 -0.012229 -6.10667e-22)
(0.991208 -0.0163191 4.87297e-20)
(0.994975 -0.0100996 -2.93032e-20)
(0.994314 -0.0136314 4.69595e-20)
(0.997065 -0.00801481 -3.1226e-20)
(0.996646 -0.0110231 4.49533e-20)
(0.998495 -0.00595083 -2.74159e-20)
(0.998301 -0.00846678 -1.59767e-19)
(0.999337 -0.00391758 3.84739e-20)
(0.999233 -0.00596247 6.99572e-20)
(0.999681 -0.00200327 9.49157e-20)
(0.999213 -0.00362325 5.48368e-20)
(0.998613 -0.0015421 1.23303e-20)
(0.669776 -0.102132 1.21145e-19)
(0.645183 -0.125733 -3.58637e-20)
(0.715982 -0.083608 1.2672e-19)
(0.693965 -0.10256 6.35953e-20)
(0.757815 -0.0731314 0)
(0.738644 -0.0894882 -7.74732e-20)
(0.794592 -0.0664066 -1.16328e-19)
(0.778274 -0.0810276 1.83025e-21)
(0.826522 -0.0615641 -5.07725e-20)
(0.812754 -0.0749464 -7.81129e-20)
(0.854108 -0.0576142 3.97504e-20)
(0.842575 -0.0700195 7.75262e-22)
(0.877906 -0.0540782 -8.92607e-20)
(0.868282 -0.0656443 2.98564e-20)
(0.898432 -0.0507382 -1.10177e-19)
(0.890429 -0.0615408 -1.71918e-19)
(0.916128 -0.0474928 -5.32107e-20)
(0.9095 -0.0575824 -5.28979e-20)
(0.931371 -0.0442869 0)
(0.92591 -0.0537054 -4.85675e-20)
(0.944471 -0.0410817 -4.16683e-20)
(0.940003 -0.0498682 8.86151e-20)
(0.955686 -0.0378447 -4.24714e-20)
(0.952065 -0.0460346 -1.67612e-19)
(0.965229 -0.0345512 3.75881e-20)
(0.962334 -0.0421712 1.18982e-19)
(0.973277 -0.0311931 3.82373e-20)
(0.971007 -0.0382536 7.50429e-20)
(0.979981 -0.0277873 3.49388e-20)
(0.978251 -0.0342796 -1.44215e-19)
(0.985478 -0.0243757 3.54855e-20)
(0.984209 -0.030278 1.73738e-19)
(0.989894 -0.0210115 6.44773e-20)
(0.989011 -0.0263045 -6.68438e-20)
(0.99335 -0.0177381 9.63076e-20)
(0.992774 -0.0224202 -3.13534e-20)
(0.995952 -0.0145729 1.21225e-19)
(0.99562 -0.018664 6.20013e-20)
(0.997794 -0.0115031 -8.24653e-20)
(0.99768 -0.0150344 2.391e-19)
(0.998956 -0.0085015 -6.34601e-20)
(0.99906 -0.0114992 -2.89575e-19)
(0.999513 -0.00558724 8.5933e-20)
(0.999626 -0.00808473 1.40042e-19)
(0.999577 -0.00288715 -2.74909e-20)
(0.998946 -0.00501032 -2.73337e-20)
(0.997628 -0.00237269 9.49116e-20)
(0.668275 -0.126777 -9.58863e-20)
(0.643183 -0.150556 -3.58637e-20)
(0.715541 -0.10878 -1.37777e-19)
(0.693398 -0.128462 1.19828e-19)
(0.758291 -0.0975869 -7.70064e-20)
(0.739148 -0.114867 -1.30257e-19)
(0.79583 -0.0896982 4.14305e-20)
(0.779682 -0.105303 1.83025e-21)
(0.828361 -0.083491 -2.777e-20)
(0.814868 -0.0978472 7.86872e-20)
(0.856402 -0.078119 -9.51415e-21)
(0.845225 -0.0914552 -3.51896e-20)
(0.88053 -0.073165 -5.01933e-20)
(0.871326 -0.0856095 6.19496e-20)
(0.901277 -0.0684357 -1.16059e-19)
(0.893742 -0.0800642 1.10459e-19)
(0.919104 -0.0638403 -4.82963e-20)
(0.912978 -0.0747066 -5.21756e-20)
(0.9344 -0.0593273 3.86168e-20)
(0.929462 -0.0694788 -2.20393e-21)
(0.947487 -0.0548571 -3.47889e-20)
(0.943553 -0.0643402 8.86151e-20)
(0.958633 -0.0503924 -8.85581e-21)
(0.955549 -0.0592518 -2.0764e-19)
(0.968057 -0.045901 1.56825e-19)
(0.965695 -0.0541735 7.95577e-20)
(0.975942 -0.0413655 -1.05524e-19)
(0.974195 -0.0490717 1.1197e-19)
(0.982446 -0.0367959 -7.97505e-21)
(0.981221 -0.0439334 -2.15492e-19)
(0.987708 -0.0322335 7.32411e-20)
(0.986921 -0.0387799 7.06136e-20)
(0.991861 -0.0277392 -1.62928e-19)
(0.99143 -0.0336676 -1.06995e-21)
(0.995025 -0.0233698 -6.6309e-20)
(0.994869 -0.0286676 -3.36379e-20)
(0.997311 -0.0191548 1.78699e-19)
(0.997361 -0.0238322 3.08799e-20)
(0.998812 -0.0150871 3.46023e-20)
(0.999056 -0.0191637 2.36286e-19)
(0.999607 -0.0111384 -8.83733e-20)
(1.00006 -0.0146263 -2.28524e-19)
(0.999772 -0.00733573 2.77719e-20)
(1.00016 -0.0102844 -1.09894e-19)
(0.999427 -0.0038599 9.43659e-20)
(0.998621 -0.0064879 -1.78567e-22)
(0.996483 -0.00350031 1.90162e-19)
(0.667221 -0.152752 1.76036e-19)
(0.641525 -0.176955 -3.63024e-20)
(0.715884 -0.134897 1.32198e-19)
(0.693501 -0.155448 1.8036e-19)
(0.759714 -0.1228 -5.37656e-20)
(0.740574 -0.1411 -5.27841e-20)
(0.798096 -0.113606 3.78501e-20)
(0.782128 -0.130267 0)
(0.831274 -0.105923 7.30136e-20)
(0.818087 -0.121311 3.84938e-20)
(0.859796 -0.0990358 3.49432e-20)
(0.849017 -0.11335 3.44634e-20)
(0.884262 -0.0925855 2.22007e-19)
(0.875525 -0.105946 0)
(0.905222 -0.0864028 1.76314e-19)
(0.898207 -0.0988863 5.70276e-20)
(0.923158 -0.0804059 -6.61657e-21)
(0.917587 -0.0920701 1.0267e-19)
(0.938474 -0.0745463 4.68471e-20)
(0.934114 -0.0854448 -4.82629e-20)
(0.951506 -0.0687835 -8.13042e-20)
(0.948162 -0.0789703 -8.64531e-20)
(0.962531 -0.0630753 -1.21929e-19)
(0.960041 -0.0726046 8.08057e-20)
(0.971777 -0.0573814 3.43684e-20)
(0.970006 -0.0663013 -4.04433e-20)
(0.979434 -0.0516736 4.83807e-21)
(0.978268 -0.0600168 1.47548e-19)
(0.985664 -0.0459511 -1.3921e-19)
(0.985003 -0.0537254 6.64723e-20)
(0.990612 -0.0402487 -3.157e-21)
(0.990367 -0.0474363 -2.02066e-19)
(0.994413 -0.0346293 1.28456e-19)
(0.994496 -0.0411995 6.57738e-20)
(0.997194 -0.0291599 6.30953e-20)
(0.997516 -0.0350906 1.72885e-22)
(0.999065 -0.0238829 8.70952e-20)
(0.999554 -0.0291729 -5.91839e-20)
(1.00012 -0.0187978 -2.53027e-20)
(1.00077 -0.023452 2.96737e-20)
(1.00043 -0.0138693 -2.50788e-19)
(1.00131 -0.0178867 -2.0217e-21)
(1.00007 -0.00910697 -1.43023e-19)
(1.00084 -0.012588 -2.45662e-19)
(0.999242 -0.00494649 7.97826e-20)
(0.998292 -0.00807652 5.04085e-20)
(0.995316 -0.00501042 1.88255e-19)
(0.666696 -0.180131 -3.71726e-20)
(0.640234 -0.205024 -3.63024e-20)
(0.717059 -0.162032 0)
(0.69432 -0.183656 0)
(0.762153 -0.148815 0)
(0.742973 -0.168278 0)
(0.80148 -0.138156 0)
(0.78569 -0.15597 8.63893e-20)
(0.83536 -0.128876 0)
(0.822505 -0.145363 -7.88701e-20)
(0.864388 -0.120373 0)
(0.854049 -0.135715 0)
(0.889192 -0.112343 -1.65739e-19)
(0.880977 -0.126657 0)
(0.910351 -0.104639 -1.71711e-20)
(0.903913 -0.118003 -1.67895e-19)
(0.928366 -0.0971855 6.27177e-20)
(0.923411 -0.109664 1.54584e-19)
(0.943661 -0.0899375 -1.81178e-19)
(0.93994 -0.101592 -1.86434e-19)
(0.956588 -0.0828526 7.4018e-20)
(0.953896 -0.0937447 9.61678e-23)
(0.967436 -0.0758842 1.63419e-19)
(0.965602 -0.086078 1.61657e-19)
(0.976441 -0.0689836 7.10769e-20)
(0.975324 -0.0785387 -1.51894e-19)
(0.983799 -0.0621109 2.09953e-19)
(0.983279 -0.0710735 2.15272e-19)
(0.989677 -0.0552516 5.82105e-21)
(0.989649 -0.0636429 -1.34197e-19)
(0.994224 -0.0484281 -1.35177e-19)
(0.994594 -0.0562398 -2.96875e-21)
(0.99758 -0.0416983 -6.2017e-20)
(0.998253 -0.0489014 0)
(0.999873 -0.0351339 -1.21677e-19)
(1.00075 -0.0417005 -6.247e-20)
(1.00122 -0.0287885 -1.17198e-19)
(1.00223 -0.0347077 1.16472e-19)
(1.00171 -0.0226693 5.34203e-20)
(1.00287 -0.0279302 -2.27982e-19)
(1.00142 -0.0167379 4.60866e-21)
(1.00282 -0.0213182 2.74105e-19)
(1.00041 -0.0109926 -6.41196e-20)
(1.00169 -0.0150511 -2.13639e-19)
(0.999123 -0.00620457 1.23743e-19)
(0.998046 -0.00995266 -4.06103e-22)
(0.994088 -0.0069248 -3.40909e-20)
(0.666709 -0.209028 0)
(0.639301 -0.234909 3.5572e-20)
(0.719093 -0.190319 0)
(0.695881 -0.213269 5.74842e-20)
(0.765663 -0.175718 8.47829e-20)
(0.746394 -0.196537 -2.52051e-19)
(0.806064 -0.163397 1.01566e-20)
(0.790449 -0.182496 3.45398e-19)
(0.840714 -0.152371 -8.00684e-20)
(0.82822 -0.170046 -1.57042e-19)
(0.870275 -0.142136 0)
(0.860426 -0.158565 -2.0057e-19)
(0.895417 -0.132433 0)
(0.887781 -0.147738 -5.81964e-20)
(0.916752 -0.123132 0)
(0.910956 -0.1374 -1.08003e-19)
(0.93481 -0.114163 -9.0773e-20)
(0.930538 -0.127468 0)
(0.950037 -0.105482 -7.0964e-21)
(0.947024 -0.117895 2.08147e-22)
(0.962803 -0.0970439 8.61546e-20)
(0.960832 -0.108637 8.65583e-20)
(0.973411 -0.0887974 -1.50724e-19)
(0.972303 -0.0996439 -1.26572e-21)
(0.982107 -0.0806854 -1.09193e-20)
(0.981713 -0.090857 6.87589e-20)
(0.989092 -0.0726562 -1.25904e-19)
(0.989289 -0.082213 -6.85057e-20)
(0.994539 -0.0646793 -1.44018e-19)
(0.995218 -0.0736582 -3.37148e-19)
(0.998599 -0.0567605 1.32186e-19)
(0.999662 -0.0651672 2.5908e-19)
(1.00141 -0.0489457 0)
(1.00276 -0.0567588 0)
(1.00312 -0.0413053 1.7441e-19)
(1.00465 -0.048496 -1.17716e-19)
(1.00384 -0.0339031 7.84462e-21)
(1.00547 -0.0404504 2.89796e-19)
(1.00367 -0.026761 -9.3772e-21)
(1.00541 -0.0326278 -2.24208e-19)
(1.00268 -0.019854 5.69946e-20)
(1.00468 -0.0249743 1.08982e-19)
(1.00098 -0.0132006 -1.56729e-19)
(1.00277 -0.0177739 -1.05489e-19)
(0.999116 -0.00766735 -1.77573e-19)
(0.997919 -0.0122274 -9.98754e-20)
(0.992724 -0.00917006 -2.17011e-19)
(0.667269 -0.239634 9.25309e-20)
(0.638705 -0.266813 -2.36854e-19)
(0.722029 -0.219942 -1.88276e-19)
(0.698228 -0.244519 5.74842e-20)
(0.77032 -0.203641 -2.54509e-21)
(0.750918 -0.226057 -2.48991e-19)
(0.811943 -0.189404 1.86348e-19)
(0.796509 -0.209958 -5.79062e-23)
(0.847443 -0.176441 -2.76882e-19)
(0.835346 -0.195416 -7.63577e-20)
(0.877564 -0.16433 -2.60758e-19)
(0.868261 -0.181917 -1.33968e-19)
(0.903038 -0.152843 -1.65559e-19)
(0.89605 -0.16918 6.21231e-20)
(0.924522 -0.141858 -1.09291e-19)
(0.919441 -0.157052 1.06543e-19)
(0.942579 -0.131309 9.09957e-20)
(0.939066 -0.145449 -9.63921e-20)
(0.957683 -0.121147 9.29794e-20)
(0.955455 -0.134316 9.20196e-20)
(0.970227 -0.111323 0)
(0.969053 -0.123606 0)
(0.980527 -0.10178 2.17599e-19)
(0.980219 -0.113261 7.58479e-20)
(0.988842 -0.0924516 1.2419e-20)
(0.989246 -0.103215 1.46723e-19)
(0.995381 -0.0832747 -2.77514e-19)
(0.996369 -0.0933942 -2.11074e-19)
(1.00032 -0.0742022 6.10627e-20)
(1.00178 -0.0837317 6.36092e-20)
(1.00381 -0.0652202 1.28859e-19)
(1.00564 -0.0741828 -1.19683e-19)
(1.006 -0.0563567 -1.16862e-19)
(1.0081 -0.0647448 1.19293e-19)
(1.00702 -0.0476738 -5.31584e-21)
(1.00929 -0.0554637 -1.17716e-19)
(1.00701 -0.0392403 6.10273e-20)
(1.00935 -0.0464042 2.2444e-19)
(1.00606 -0.0310931 -1.07956e-19)
(1.0085 -0.0375639 -1.0718e-19)
(1.00427 -0.0232235 -5.40217e-20)
(1.00696 -0.0288835 -5.36901e-20)
(1.00173 -0.0156656 -4.86692e-20)
(1.00415 -0.0207703 0)
(0.999128 -0.00936906 -1.38829e-19)
(0.997946 -0.0148623 -1.93336e-19)
(0.99137 -0.0118621 8.79147e-20)
(0.668398 -0.272194 -2.78957e-19)
(0.638438 -0.300998 3.50171e-20)
(0.725946 -0.251132 3.15622e-21)
(0.701439 -0.277688 -2.28477e-19)
(0.776232 -0.232748 -2.51095e-19)
(0.756664 -0.257061 1.54178e-19)
(0.81924 -0.216274 -2.61623e-19)
(0.804007 -0.2385 -2.1537e-19)
(0.855669 -0.201129 6.74756e-20)
(0.844024 -0.221546 1.52452e-19)
(0.886376 -0.186959 1.86309e-19)
(0.87769 -0.205789 1.9655e-19)
(0.912171 -0.173551 3.33755e-19)
(0.90591 -0.190969 1.20377e-19)
(0.933767 -0.160783 1.21904e-19)
(0.929486 -0.176923 1.07995e-19)
(0.951772 -0.148581 -9.74648e-20)
(0.949101 -0.163557 -9.4053e-20)
(0.966691 -0.136886 0)
(0.96533 -0.150801 2.38177e-21)
(0.978943 -0.125643 7.51034e-20)
(0.978646 -0.138595 7.94858e-20)
(0.988863 -0.114784 4.31679e-21)
(0.989434 -0.126873 7.42647e-20)
(0.996722 -0.104235 -7.35501e-20)
(0.998001 -0.115557 6.48454e-20)
(1.00274 -0.0939199 1.27758e-19)
(1.00459 -0.104563 -1.33148e-19)
(1.00709 -0.0837762 -1.15684e-19)
(1.00941 -0.0938113 1.90629e-19)
(1.00992 -0.0737689 -1.31103e-19)
(1.01261 -0.083238 -1.87163e-19)
(1.0114 -0.0639038 1.20158e-19)
(1.01435 -0.0728173 6.04551e-20)
(1.01165 -0.0542267 1.09508e-19)
(1.01475 -0.0625736 1.64954e-19)
(1.01081 -0.0448037 5.82479e-20)
(1.01395 -0.0525553 -5.09272e-20)
(1.00898 -0.0356823 -5.32836e-20)
(1.0122 -0.0427426 -2.12286e-22)
(1.00625 -0.0268707 0)
(1.00972 -0.0330629 -1.50746e-19)
(1.00273 -0.0184186 -1.43544e-19)
(1.00589 -0.0240571 2.41861e-19)
(0.99924 -0.0113438 -4.79215e-20)
(0.998221 -0.0178659 -1.44404e-19)
(0.990132 -0.0150468 3.75165e-19)
(0.670144 -0.307008 9.20482e-20)
(0.63851 -0.337784 3.72768e-19)
(0.730965 -0.284165 -8.52628e-20)
(0.705636 -0.31311 -5.7845e-20)
(0.783551 -0.26324 1.97058e-19)
(0.763805 -0.289814 5.60714e-20)
(0.828111 -0.244124 1.92807e-19)
(0.81313 -0.268293 2.12572e-19)
(0.865544 -0.226483 2.80955e-19)
(0.854431 -0.248521 3.72109e-21)
(0.896852 -0.210022 1.31679e-19)
(0.888876 -0.230203 6.51516e-20)
(0.922944 -0.194527 -1.05271e-19)
(0.917507 -0.21308 0)
(0.944605 -0.179858 -1.05569e-19)
(0.941219 -0.196964 -1.0664e-19)
(0.962493 -0.165919 4.71238e-21)
(0.96076 -0.181728 9.45707e-20)
(0.977156 -0.152636 8.10634e-20)
(0.976753 -0.167277 2.49343e-21)
(0.989039 -0.139937 7.86952e-20)
(0.989707 -0.153531 -2.22518e-22)
(0.9985 -0.127745 1.34904e-19)
(1.00003 -0.140406 -1.58638e-21)
(1.00582 -0.115972 7.05108e-21)
(1.00805 -0.127811 6.86168e-20)
(1.01123 -0.104532 -7.29771e-20)
(1.01403 -0.115652 -5.73109e-21)
(1.01491 -0.0933446 1.22217e-19)
(1.01817 -0.103831 -1.21979e-19)
(1.01702 -0.0823543 2.51889e-21)
(1.02063 -0.0922701 2.34492e-19)
(1.0177 -0.0715428 1.04494e-19)
(1.02157 -0.0809187 -2.26531e-19)
(1.01709 -0.0609334 6.24527e-21)
(1.02109 -0.0697769 1.63118e-19)
(1.01531 -0.0505798 -1.09718e-19)
(1.01935 -0.0588697 -2.1356e-19)
(1.01249 -0.0405325 -9.67089e-20)
(1.01659 -0.0481492 1.03318e-19)
(1.00869 -0.0308138 9.53323e-20)
(1.01305 -0.0375186 -3.9229e-19)
(1.00405 -0.0214879 2.43302e-19)
(1.00805 -0.0276526 1.91565e-19)
(0.999519 -0.0136279 1.96024e-19)
(0.998841 -0.021252 -1.77812e-21)
(0.989109 -0.0187472 3.66307e-19)
(0.672594 -0.344425 2.33841e-19)
(0.638961 -0.377541 3.53163e-20)
(0.737262 -0.319362 8.14141e-20)
(0.711001 -0.35116 2.28693e-19)
(0.792486 -0.295351 6.88324e-20)
(0.772581 -0.324617 -9.50936e-20)
(0.838764 -0.273095 2.68738e-20)
(0.824121 -0.299533 1.68744e-19)
(0.877258 -0.252561 -2.131e-19)
(0.866792 -0.276437 -1.47046e-19)
(0.909159 -0.233518 -6.5738e-20)
(0.902016 -0.255177 -1.26994e-19)
(0.935504 -0.21573 0)
(0.931011 -0.235482 -1.67424e-19)
(0.957163 -0.199016 9.11e-20)
(0.954786 -0.217109 1.02613e-19)
(0.974858 -0.183245 9.34042e-20)
(0.974168 -0.199877 -1.78947e-19)
(0.98918 -0.168313 -7.87529e-20)
(0.989833 -0.183651 1.65455e-19)
(1.00061 -0.154124 -8.05005e-20)
(1.00233 -0.168317 -1.54475e-19)
(1.00952 -0.140582 -6.84925e-20)
(1.0121 -0.153766 -6.92372e-20)
(1.01622 -0.127587 5.65574e-20)
(1.01949 -0.139889 -1.33722e-19)
(1.02094 -0.115037 -5.36807e-20)
(1.02476 -0.126574 1.27416e-19)
(1.02388 -0.102836 -1.25395e-20)
(1.02814 -0.113711 -2.41139e-19)
(1.02517 -0.0909087 9.02716e-21)
(1.02978 -0.101202 1.17738e-19)
(1.02498 -0.0792118 -1.70678e-19)
(1.02983 -0.0889763 -1.12913e-19)
(1.02341 -0.0677424 -5.37847e-20)
(1.02841 -0.0770073 -2.06516e-21)
(1.02061 -0.0565334 -2.46097e-21)
(1.02563 -0.0652929 -1.9985e-19)
(1.01667 -0.0456287 -1.89074e-19)
(1.02175 -0.0537483 -1.86488e-19)
(1.01168 -0.0350575 -2.85322e-19)
(1.01702 -0.0422399 8.3255e-20)
(1.00577 -0.0248956 -8.07391e-20)
(1.01074 -0.0315661 -2.74334e-19)
(1.00003 -0.0162539 5.57284e-20)
(0.999912 -0.025025 -1.77812e-21)
(0.988409 -0.0229729 1.6915e-19)
(0.675882 -0.384836 2.54573e-20)
(0.639866 -0.420671 -2.97797e-20)
(0.745082 -0.357081 5.89661e-20)
(0.717786 -0.392244 5.77565e-20)
(0.803313 -0.329347 0)
(0.783311 -0.361802 0)
(0.851462 -0.303341 0)
(0.8373 -0.332439 -1.58171e-19)
(0.891044 -0.279423 -6.12142e-20)
(0.88139 -0.305399 -2.05992e-19)
(0.923497 -0.257436 -2.28098e-19)
(0.917348 -0.280727 6.55469e-20)
(0.950018 -0.237101 -6.83521e-20)
(0.946618 -0.258125 -5.1118e-21)
(0.971584 -0.218173 -1.64004e-19)
(0.97035 -0.237269 2.97325e-19)
(0.988986 -0.200459 -1.10736e-19)
(0.989459 -0.217896 -2.6834e-19)
(1.00287 -0.18381 9.30699e-20)
(1.00468 -0.199805 2.43348e-19)