/*--------------------------------*- C++ -*----------------------------------*\
  =========                 |
  \\      /  F ield         | OpenFOAM: The Open Source CFD Toolbox
   \\    /   O peration     | Website:  https://openfoam.org
    \\  /    A nd           | Version:  11
     \\/     M anipulation  |
\*---------------------------------------------------------------------------*/
FoamFile
{
    format      ascii;
    class       volScalarField;
    location    "0.74";
    object      epsilon;
}
// * * * * * * * * * * * * * * * * * * * * * * * * * * * * * * * * * * * * * //

dimensions      [0 2 -3 0 0 0 0];

internalField   nonuniform List<scalar> 
2880
(
2.67183
5.53173
7.93815
8.56067
9.00022
35.4069
1.02072
2.79173
4.31998
5.54351
6.43318
10.3294
0.266597
2.29354
3.51152
4.62081
5.27132
5.69652
1.22318
2.16287
3.16617
4.03333
4.2057
3.85956
1.44047
2.11539
2.96149
3.54035
3.40688
2.74867
1.61037
2.09756
2.81654
3.14344
2.82642
2.03494
1.73966
2.08981
2.70624
2.84952
2.39666
1.59698
1.82996
2.08233
2.61912
2.64167
2.07973
1.31187
1.88518
2.06948
2.54819
2.49635
1.84663
1.11547
1.91013
2.04671
2.49045
2.3897
1.67796
0.976278
1.90977
2.01272
2.44277
2.31269
1.55831
0.875695
1.88921
1.96853
2.4021
2.26117
1.47886
0.803622
1.84855
1.91418
2.36852
2.23628
1.43074
0.75424
1.78413
1.84892
2.34255
2.23585
1.41085
0.723145
1.69533
1.77195
2.3234
2.26007
1.41923
0.707779
1.58148
1.68145
2.30956
2.30721
1.45806
0.707201
1.44335
1.57382
2.29794
2.3753
1.53201
0.722284
1.28581
1.4451
2.28053
2.46415
1.64889
0.755158
0.279894
1.29173
2.24473
2.57151
1.8213
0.811048
0.268917
1.12385
2.17422
2.69274
2.06908
0.901141
0.25264
0.977819
2.04929
2.81933
2.4228
1.05135
0.230089
0.873453
1.86268
2.94334
2.92367
1.32828
0.861562
0.901455
1.67071
3.09803
3.57301
1.9925
2.03357
1.66321
2.15651
3.65519
4.41387
3.87042
15.6064
4.5776
1.65076
0.718994
0.35766
0.194183
0.112667
0.0690234
0.0442746
0.0295691
0.0204894
0.0146987
0.0109002
0.00834556
0.00658902
0.00535762
0.00448057
0.00384953
0.0033957
0.00307591
0.0028637
0.002752
0.00278199
0.00305746
6.33076
2.509
1.09483
0.518025
0.265374
0.147013
0.0868674
0.0540388
0.0350893
0.0236631
0.0165244
0.0119275
0.00888709
0.00682698
0.00539957
0.0043896
0.0036604
0.00312308
0.00271835
0.00240494
0.00215185
0.00193838
0.00177506
0.00177799
3.63536
1.67193
0.763578
0.370899
0.19669
0.112266
0.0677775
0.0428089
0.0281096
0.019119
0.0134407
0.00975235
0.00729493
0.00561872
0.00444953
0.00361586
0.00300765
0.00255224
0.00219994
0.00191441
0.00166608
0.00143064
0.0011953
0.000865712
2.3786
1.13046
0.536211
0.272647
0.149678
0.0874748
0.0537008
0.0343398
0.0227623
0.0155963
0.011028
0.00803848
0.00603443
0.00466031
0.00369733
0.00300759
0.00250211
0.00212204
0.00182721
0.00158829
0.00138122
0.00118635
0.000991322
0.000731921
1.60466
0.788218
0.390809
0.206187
0.116285
0.0692837
0.0431381
0.0278787
0.0186296
0.0128454
0.00912845
0.0066809
0.00503226
0.00389761
0.00310019
0.00252788
0.00210801
0.00179243
0.0015482
0.00135102
0.00118021
0.00101929
0.000861953
0.00066648
1.15776
0.578933
0.295613
0.160176
0.0922148
0.0557925
0.0351401
0.0229086
0.0154109
0.0106815
0.00762245
0.0055982
0.00422977
0.00328558
0.00262091
0.00214343
0.00179301
0.00152967
0.001326
0.00116163
0.00101909
0.000885514
0.000758751
0.000611059
0.881536
0.443612
0.230919
0.127546
0.0745773
0.0456632
0.029023
0.0190519
0.0128842
0.00896678
0.00641997
0.00472848
0.00358216
0.00279003
0.00223199
0.00183103
0.00153684
0.00131588
0.00114515
0.00100754
0.00088851
0.000778211
0.000676737
0.000564627
0.702608
0.353156
0.185867
0.103956
0.0614593
0.0379684
0.0242993
0.0160343
0.0108859
0.0075986
0.00545345
0.00402521
0.00305596
0.00238585
0.00191387
0.001575
0.00132665
0.00114041
0.000996845
0.000881545
0.000782415
0.000691964
0.000611251
0.00052615
0.581186
0.290511
0.153691
0.0865836
0.0515694
0.032061
0.0206197
0.0136554
0.0092947
0.00650008
0.00467204
0.00345338
0.00262613
0.00205452
0.00165244
0.0013643
0.00115365
0.000996169
0.000875294
0.000778794
0.000696578
0.000622872
0.000558971
0.000494468
0.496156
0.246044
0.130267
0.0735959
0.0440277
0.0274842
0.0177312
0.0117673
0.00802016
0.00561334
0.00403721
0.0029864
0.00227368
0.00178205
0.0014371
0.00119071
0.0010113
0.000877839
0.00077605
0.000695452
0.000627555
0.00056781
0.000517365
0.000468539
0.435663
0.213974
0.112899
0.0637704
0.038224
0.0239118
0.0154494
0.0102606
0.00699425
0.00489445
0.00351953
0.00260382
0.00198395
0.0015576
0.0012596
0.00104776
0.000894397
0.000781107
0.000695422
0.000628259
0.000572398
0.000524151
0.000484356
0.000447424
0.392439
0.190414
0.0998873
0.0562829
0.0337291
0.0211081
0.0136384
0.00905312
0.00616546
0.00430979
0.00309624
0.00228972
0.00174544
0.0013726
0.00111334
0.000930224
0.000798661
0.000702341
0.000630238
0.00057438
0.000528553
0.000489674
0.000458248
0.000430326
0.361487
0.173064
0.0901083
0.0505651
0.0302374
0.0189018
0.0121975
0.00808342
0.0054946
0.00383348
0.00274965
0.0020316
0.00154901
0.00122015
0.000992972
0.000833786
0.000720497
0.000638457
0.000577783
0.000531385
0.00049386
0.000462554
0.000437685
0.000416584
0.339951
0.160443
0.0828084
0.0462125
0.0275296
0.0171674
0.0110518
0.00730494
0.00495166
0.00344546
0.00246588
0.00181954
0.00138734
0.00109468
0.00089408
0.000754856
0.000656887
0.000586841
0.000535743
0.000497218
0.00046652
0.000441312
0.000421588
0.000405656
0.326053
0.151572
0.0774698
0.0429432
0.025448
0.015813
0.0101456
0.00668245
0.00451359
0.00313012
0.002234
0.00164562
0.00125452
0.000991614
0.000813033
0.000690445
0.000605292
0.000545284
0.000502172
0.000470165
0.000445061
0.000424765
0.000409099
0.000397089
0.318767
0.145819
0.0737413
0.040561
0.0238803
0.0147716
0.00943732
0.00618933
0.00416272
0.00287532
0.00204541
0.00150354
0.00114577
0.000907231
0.000746828
0.000638063
0.000563591
0.000511942
0.000475451
0.000448817
0.000428294
0.000411971
0.000399535
0.000390501
0.317696
0.142809
0.0713936
0.0389324
0.0227471
0.0139946
0.00889626
0.00580557
0.00388553
0.00267164
0.0018933
0.00138826
0.00105722
0.000838473
0.000692983
0.00059564
0.000530022
0.000485291
0.000454254
0.000432027
0.000415255
0.000402176
0.000392347
0.000385563
0.322964
0.142376
0.0702836
0.0379712
0.0219947
0.0134477
0.0085002
0.00551632
0.00367184
0.00251186
0.00177241
0.00129577
0.000985777
0.000782852
0.00064945
0.000561458
0.000503123
0.000464078
0.000437503
0.000418868
0.000405158
0.00039475
0.000387069
0.000381991
0.335244
0.144389
0.0703221
0.0376269
0.0215901
0.0131081
0.00823364
0.00531095
0.00351414
0.00239055
0.0016787
0.001223
0.000928985
0.000738373
0.000614561
0.000534097
0.000481678
0.000447264
0.000424316
0.000408586
0.000397343
0.000389109
0.00038326
0.000379478
0.356119
0.149261
0.0715245
0.0378323
0.0215178
0.0129618
0.00808652
0.00518218
0.00340713
0.00230378
0.00160918
0.00116762
0.000884991
0.000703501
0.000587013
0.00051243
0.000464708
0.00043401
0.000413987
0.000400605
0.000391342
0.000384834
0.000380469
0.000377695
0.388399
0.157107
0.0739923
0.0386945
0.021749
0.0129942
0.00805316
0.00512545
0.00334737
0.00224893
0.00156182
0.00112802
0.000852479
0.000677144
0.000565873
0.00049565
0.000451512
0.00042371
0.00040601
0.000394516
0.00038685
0.000381696
0.000378426
0.000376475
0.436778
0.168281
0.0776958
0.0401664
0.0223527
0.0132127
0.00811957
0.00513612
0.00333298
0.00222442
0.00153534
0.00110315
0.000830587
0.000658573
0.000550518
0.000483215
0.000441613
0.00041594
0.000399996
0.000389965
0.000383557
0.000379476
0.000377044
0.00037573
0.507772
0.182787
0.0826414
0.0422658
0.0232954
0.0136361
0.00831147
0.00521277
0.00335902
0.00222872
0.00152917
0.00109247
0.000818814
0.000647331
0.000540522
0.000474736
0.000434657
0.000410378
0.00039565
0.000386674
0.000381203
0.000377942
0.00037617
0.000375313
0.585341
0.198019
0.0886202
0.0449808
0.0245781
0.0142537
0.00862302
0.0053704
0.00343419
0.00226095
0.0015413
0.00109531
0.000816994
0.000643223
0.000535634
0.000469957
0.000430394
0.000406787
0.000392755
0.000384446
0.000379598
0.000376934
0.000375647
0.000375107
2.57139
4.71942
7.10018
6.58954
5.39291
4.26318
1.00869
3.3451
4.15682
3.57627
2.57471
1.52093
0.279913
2.81069
3.07985
2.44097
1.66072
0.996167
1.45197
2.56477
2.57158
1.9385
1.3112
0.836564
1.92644
2.40698
2.2667
1.68281
1.16102
0.781642
2.34525
2.28865
2.07133
1.5491
1.1019
0.774551
2.69868
2.1939
1.94525
1.48524
1.09318
0.793494
2.98401
2.12903
1.8672
1.46595
1.11378
0.835053
3.20353
2.0871
1.82474
1.47598
1.16219
0.895384
3.36144
2.06357
1.81051
1.51198
1.23191
0.974782
3.46218
2.05539
1.81723
1.56835
1.32189
1.07502
3.50952
2.06135
1.84364
1.64281
1.43234
1.19892
3.51172
2.0829
1.88762
1.73397
1.56407
1.35007
3.49492
2.12389
1.94628
1.84048
1.71787
1.53258
3.45043
2.17829
2.01691
1.96025
1.89374
1.75064
3.37018
2.23815
2.09578
2.08961
2.08988
2.00755
3.24583
2.29273
2.17821
2.22254
2.30552
2.30259
3.0679
2.32763
2.25633
2.35254
2.5326
2.64454
2.8248
2.32593
2.31998
2.47472
2.7625
3.04012
2.5024
2.2877
2.35995
2.5921
2.98716
3.50613
2.08931
2.18518
2.39887
2.72018
3.21168
4.1152
1.58575
2.06316
2.503
2.92967
3.51658
5.19035
1.14117
2.16381
2.94981
3.51099
4.17522
8.16734
3.16636
4.09321
5.64223
6.29737
6.672
27.5956
0.605375
0.210343
0.0952396
0.0482462
0.0261935
0.0150712
0.00905541
0.00560351
0.00356073
0.00232913
0.00157662
0.00111238
0.00082439
0.000645822
0.000535779
0.000468798
0.000428718
0.000405051
0.000391187
0.000383159
0.00037864
0.000376363
0.000375358
0.000375025
0.51536
0.216383
0.101939
0.0519541
0.0281285
0.0160966
0.00961686
0.00591782
0.00373924
0.00243146
0.00163565
0.00114648
0.000843908
0.000656599
0.000541361
0.000471419
0.000429706
0.000405213
0.000391002
0.000382869
0.000378406
0.000376212
0.000375281
0.000375006
0.472516
0.222624
0.10892
0.0560898
0.0303915
0.0173458
0.0103202
0.0063223
0.00397589
0.00257194
0.00172012
0.00119781
0.000875271
0.000675718
0.000552883
0.000478223
0.000433623
0.000407419
0.000392228
0.000383554
0.000378777
0.000376408
0.000375382
0.000375044
0.459701
0.231396
0.116663
0.0607705
0.033034
0.0188495
0.0111853
0.00683
0.00427931
0.00275629
0.00183389
0.00126902
0.000920364
0.000704451
0.000571184
0.000489802
0.000440894
0.000411982
0.000395121
0.00038541
0.000379929
0.000377071
0.000375739
0.00037519
0.466701
0.244233
0.125793
0.0662241
0.0361574
0.020658
0.0122418
0.00745927
0.00466128
0.00299228
0.00198217
0.00136369
0.000981653
0.000744534
0.000597511
0.000507075
0.000452195
0.000419387
0.00040001
0.000388656
0.000382044
0.000378309
0.000376439
0.000375571
0.486213
0.262051
0.136991
0.072758
0.0399191
0.0228449
0.0135309
0.00823504
0.00513758
0.00329019
0.00217182
0.0014865
0.00106241
0.00079829
0.000633561
0.000531304
0.000468471
0.000430335
0.000407414
0.000393672
0.000385376
0.000380406
0.00037768
0.000376299
0.516689
0.285438
0.151043
0.0807795
0.0445191
0.0255115
0.0151085
0.00919051
0.00572892
0.00366346
0.00241185
0.00164359
0.00116691
0.000868777
0.000681563
0.00056415
0.000490974
0.000445771
0.000418042
0.000401001
0.000390355
0.000383658
0.000379691
0.000377517
0.558753
0.315587
0.168967
0.0908318
0.050213
0.0287931
0.0170495
0.0103695
0.0064624
0.00412957
0.00271389
0.00184293
0.00130075
0.000959988
0.000744442
0.000607803
0.000521376
0.000466985
0.000432891
0.00041141
0.000397553
0.000388433
0.000382654
0.000379335
0.614121
0.354393
0.191934
0.103604
0.0573487
0.0328717
0.0194534
0.0118297
0.00737334
0.00471118
0.00309304
0.0020949
0.00147122
0.00107719
0.000826086
0.000665207
0.000561952
0.000495749
0.000453326
0.000425909
0.000407659
0.000395182
0.000386979
0.00038203
0.685416
0.404365
0.221594
0.120008
0.0664024
0.037995
0.022454
0.0136476
0.00850796
0.00543768
0.00356881
0.00241292
0.00168784
0.00122729
0.000931639
0.000740278
0.00061574
0.000534435
0.000481179
0.000445877
0.000421696
0.000404678
0.000393216
0.000385949
0.776184
0.468828
0.260202
0.141316
0.0780377
0.0445045
0.0262332
0.0159253
0.00992706
0.00634735
0.00416649
0.00281434
0.00196293
0.00141928
0.00106781
0.000838125
0.000686696
0.000586145
0.000518884
0.000473204
0.000441095
0.000417946
0.000402022
0.000391432
0.891005
0.552172
0.310858
0.169323
0.0931925
0.0528785
0.0310412
0.0188008
0.0117114
0.00749024
0.00491878
0.00332154
0.00231234
0.00166474
0.00124325
0.000965352
0.000779949
0.000654916
0.000569644
0.000510412
0.000467776
0.000436339
0.000414246
0.000398895
1.03563
0.660144
0.377816
0.206569
0.113208
0.0637965
0.0372282
0.0224631
0.0139692
0.00893233
0.00586822
0.00396333
0.00275641
0.0019785
0.00146909
0.00113048
0.000902144
0.000746015
0.000637671
0.000560851
0.000504318
0.000461695
0.000431044
0.000408872
1.21709
0.800165
0.466855
0.256649
0.140018
0.078237
0.0452911
0.0271749
0.0168478
0.0107614
0.00707046
0.00477692
0.00332121
0.00237954
0.00175956
0.00134444
0.00106186
0.000866279
0.000728463
0.000628932
0.000554163
0.000496523
0.000454015
0.000422069
1.44381
0.981602
0.585683
0.324607
0.176414
0.0976223
0.0559447
0.0333072
0.0205502
0.013096
0.00859898
0.00581062
0.00404017
0.00289201
0.00213275
0.00162121
0.00127012
0.00102453
0.000849167
0.000720431
0.000621881
0.000544211
0.000485356
0.000439435
1.72589
1.21589
0.74424
0.417359
0.226401
0.124028
0.0702296
0.0413915
0.0253614
0.0160982
0.0105521
0.00712781
0.00495647
0.0035468
0.00261168
0.0019785
0.00154093
0.00123209
0.00100901
0.000842875
0.000713489
0.000609299
0.000528064
0.000462247
2.07315
1.51651
0.954707
0.544033
0.295598
0.160472
0.0896699
0.0521988
0.0316867
0.0199935
0.0130635
0.00881272
0.00612637
0.00438352
0.00322557
0.00243874
0.00189204
0.00150333
0.00121981
0.00100601
0.000836879
0.000697831
0.000586193
0.000492201
2.48715
1.90086
1.2311
0.715972
0.391617
0.211267
0.116496
0.0668579
0.0401118
0.0251013
0.0163179
0.0109792
0.0076243
0.00545362
0.0040118
0.00303029
0.00234582
0.0018564
0.00149658
0.00122236
0.00100236
0.000817846
0.000665217
0.000531511
2.97371
2.38282
1.58732
0.945988
0.524142
0.282386
0.153936
0.0870238
0.0514906
0.0318801
0.0205756
0.013784
0.0095506
0.00682504
0.00501884
0.00378943
0.00293054
0.00231414
0.00185832
0.00150792
0.00122335
0.00098007
0.00077258
0.000582997
3.55102
2.97234
2.03381
1.24623
0.704273
0.381607
0.206522
0.115103
0.0670745
0.0409964
0.0262088
0.0174474
0.0120434
0.0085895
0.00631092
0.00476339
0.00368253
0.00290563
0.00232905
0.00188309
0.00151727
0.00119891
0.000918602
0.000650245
4.27934
3.67264
2.57386
1.62461
0.942581
0.518079
0.28028
0.154509
0.0886849
0.0534241
0.0337573
0.0222841
0.0152971
0.010874
0.00797567
0.00601571
0.00465
0.00366896
0.00294001
0.00237428
0.00190702
0.00149404
0.00111812
0.000737976
5.32589
4.52228
3.20611
2.08129
1.24579
0.700793
0.382494
0.209848
0.118919
0.0705806
0.0440077
0.0287498
0.0195901
0.0138588
0.0101364
0.00763527
0.00590018
0.00465716
0.00373454
0.00301803
0.00242444
0.00189381
0.00139417
0.000853325
7.53279
5.5813
3.93676
2.61084
1.61424
0.936118
0.520707
0.286846
0.161326
0.0944922
0.0581035
0.037508
0.0253262
0.0178038
0.0129707
0.00975098
0.007532
0.00595012
0.00477985
0.0038727
0.00312168
0.00244653
0.00178935
0.00101363
14.0825
7.69403
4.91606
3.22897
2.04642
1.22655
0.701227
0.391826
0.220442
0.127957
0.0776818
0.0495204
0.0330912
0.0230854
0.0167363
0.0125518
0.00969449
0.00767412
0.0061905
0.00504858
0.00411026
0.00326822
0.00242237
0.00134958
2.40448
3.77799
4.54438
4.23782
3.35765
2.95485
0.955856
1.87958
2.30156
2.31504
2.06911
2.3553
1.24741
1.71524
1.98132
1.98624
1.8815
2.12727
1.67306
1.78532
1.94162
1.93643
1.874
2.06831
2.05405
1.89878
1.97667
1.97043
1.9413
2.09606
2.38575
1.999
2.03491
2.03641
2.03853
2.17754
2.66863
2.07565
2.09295
2.11144
2.14409
2.28847
2.90494
2.12896
2.14396
2.18526
2.24858
2.40907
3.09774
2.16241
2.1866
2.25278
2.34486
2.52435
3.25084
2.18214
2.22175
2.31105
2.42659
2.62333
3.36953
2.19411
2.25087
2.35848
2.4888
2.69495
3.44858
2.20192
2.27519
2.39506
2.52942
2.73096
3.46734
2.20479
2.29629
2.42213
2.54826
2.73455
3.43459
2.20274
2.31623
2.44246
2.55063
2.70857
3.34005
2.19598
2.33747
2.45998
2.54243
2.65768
3.18459
2.18583
2.36304
2.47969
2.53169
2.5909
2.96901
2.17384
2.39579
2.50838
2.52778
2.52004
2.69452
2.16147
2.43727
2.55543
2.54549
2.45915
2.36208
2.1494
2.49265
2.63459
2.61129
2.42689
1.96635
2.14161
2.56931
2.76153
2.74774
2.45288
1.48515
2.1426
2.67926
2.96703
3.00856
2.62353
0.280583
2.17548
2.85636
3.31766
3.49577
3.13206
0.994362
2.42684
3.28756
4.00307
4.46197
4.64336
2.16716
4.03612
5.20529
6.03846
6.3164
6.14325
11.0799
8.50413
5.7243
3.84771
2.51594
1.56518
0.926512
0.53049
0.301506
0.174628
0.105017
0.0661602
0.043727
0.030242
0.021798
0.0163029
0.0125967
0.0100109
0.00814389
0.0067424
0.00563571
0.00470646
0.00393803
0.00359758
7.78027
7.91414
6.3273
4.40412
2.98594
1.93586
1.19327
0.706271
0.409715
0.238893
0.143121
0.0893321
0.0584178
0.0400232
0.0286478
0.0213428
0.016487
0.0131617
0.0108321
0.00918089
0.00801695
0.0072391
0.00688793
0.00718298
5.1391
7.05591
6.29181
4.74266
3.3922
2.30834
1.48999
0.918353
0.548995
0.32543
0.19572
0.121576
0.0787916
0.053458
0.0379418
0.028097
0.0216467
0.0173167
0.0143829
0.0124323
0.0112288
0.0106547
0.0107121
0.0113735
3.67876
6.41017
6.10368
4.98831
3.72652
2.65814
1.80059
1.16093
0.720554
0.438308
0.266972
0.166087
0.107027
0.071961
0.0505877
0.0371527
0.0284644
0.0227414
0.0189811
0.0166138
0.0153072
0.014872
0.0151968
0.0161124
3.13829
5.83639
5.77714
5.06084
3.9594
2.95893
2.10401
1.42262
0.921516
0.579748
0.360817
0.226551
0.145905
0.0974426
0.0678478
0.0493375
0.0374872
0.0298014
0.0248675
0.021871
0.0203201
0.0199089
0.0203906
0.021496
2.94754
5.24527
5.55781
5.05848
4.09605
3.19268
2.37829
1.68715
1.14385
0.748564
0.479836
0.306619
0.198703
0.132374
0.0914457
0.0658155
0.0494929
0.039012
0.0323744
0.0284053
0.0263767
0.0258269
0.0263628
0.0276026
2.89594
4.73281
5.44782
5.06098
4.18563
3.36192
2.60854
1.93692
1.3752
0.939357
0.624019
0.409025
0.268799
0.179719
0.123635
0.0881873
0.0655805
0.0511113
0.041985
0.0365212
0.0336626
0.0327388
0.0332079
0.0345092
2.91306
4.34693
5.35982
5.10118
4.29275
3.48731
2.78919
2.15633
1.60035
1.14216
0.789466
0.534291
0.358859
0.242592
0.167143
0.118553
0.0872635
0.0671473
0.0544028
0.0466773
0.0424686
0.040825
0.0410612
0.0423115
2.96729
4.09708
5.23935
5.15655
4.47047
3.60851
2.92956
2.33725
1.80495
1.34418
0.96828
0.679672
0.469741
0.323558
0.224868
0.159464
0.116533
0.0885716
0.0706383
0.0595521
0.0532381
0.0503668
0.0500819
0.0511546
3.03261
3.95536
5.07221
5.20498
4.71833
3.77514
3.05757
2.48381
1.98011
1.53244
1.14938
0.838528
0.599281
0.423537
0.299205
0.213626
0.155808
0.117302
0.0921061
0.0761335
0.0666333
0.0617902
0.0604681
0.0612466
3.0862
3.8725
4.88074
5.24316
4.94175
4.0456
3.21957
2.61718
2.12771
1.69876
1.3218
1.00164
0.741953
0.540729
0.391003
0.283229
0.207621
0.155662
0.120688
0.0978202
0.083628
0.0757295
0.0726315
0.0728484
3.10387
3.80489
4.69883
5.22578
5.10081
4.40109
3.46461
2.77659
2.26501
1.84454
1.47818
1.15916
0.88995
0.670589
0.498852
0.369135
0.274059
0.206111
0.158692
0.12652
0.105638
0.0931741
0.0872422
0.086321
3.08422
3.72223
4.52604
5.14469
5.1839
4.75664
3.81078
3.00988
2.42739
1.98546
1.62112
1.30605
1.03457
0.806204
0.618793
0.470157
0.355984
0.270694
0.208594
0.164616
0.134643
0.115583
0.105284
0.10228
3.02067
3.60465
4.34158
4.98986
5.20657
4.98062
4.23536
3.35463
2.66534
2.1579
1.76812
1.44783
1.17426
0.940678
0.74451
0.582429
0.45208
0.350113
0.272373
0.214651
0.173191
0.145049
0.12823
0.121703
2.91746
3.44393
4.12547
4.77702
5.13973
5.08089
4.60984
3.78125
3.01582
2.41382
1.95927
1.60598
1.31825
1.07695
0.872911
0.701461
0.559026
0.443014
0.350567
0.278566
0.223992
0.184362
0.158316
0.146084
2.78278
3.24109
3.86707
4.50602
4.96061
5.06267
4.82907
4.20283
3.45456
2.78515
2.24557
1.82574
1.49612
1.23051
1.01174
0.828959
0.67563
0.547807
0.442535
0.357171
0.289253
0.236724
0.198735
0.177715
2.62797
3.00419
3.56632
4.176
4.67638
4.92516
4.86188
4.49754
3.88305
3.23407
2.64433
2.15144
1.75531
1.4399
1.18683
0.980602
0.810167
0.668236
0.549927
0.451734
0.370935
0.305346
0.253768
0.220121
2.46709
2.74639
3.23285
3.79442
4.3031
4.64237
4.73477
4.57953
4.17864
3.64531
3.0889
2.57004
2.11959
1.74474
1.43907
1.19089
0.988449
0.822064
0.684345
0.569811
0.474423
0.395119
0.329447
0.279114
2.31654
2.48404
2.8838
3.37838
3.8608
4.23874
4.4425
4.44185
4.25133
3.88841
3.44468
2.97795
2.53073
2.12813
1.78008
1.48641
1.24178
1.03905
0.87108
0.73153
0.615229
0.517901
0.43661
0.365318
2.18573
2.23474
2.54095
2.95367
3.37991
3.75082
4.00492
4.11358
4.06983
3.88508
3.58661
3.23115
2.85387
2.4834
2.13836
1.82852
1.55719
1.32354
1.12444
0.955697
0.813158
0.692191
0.591972
0.495937
2.08156
2.01585
2.22665
2.55178
2.90122
3.22436
3.47969
3.63257
3.67877
3.61891
3.46112
3.2303
2.95876
2.66866
2.37801
2.09956
1.8413
1.60754
1.39974
1.21681
1.05719
0.917321
0.800064
0.68317
2.02121
1.8364
1.95949
2.20306
2.46978
2.72237
2.93369
3.08154
3.15524
3.15847
3.09299
2.96474
2.79485
2.59809
2.38754
2.17398
1.96563
1.76819
1.58557
1.41984
1.27112
1.13779
1.02238
0.906052
2.02411
1.69648
1.75127
1.92992
2.12384
2.30339
2.45159
2.55626
2.61224
2.62501
2.5924
2.52021
2.41781
2.29395
2.15644
2.01213
1.86655
1.72385
1.58685
1.45794
1.33952
1.23296
1.14175
1.06537
2.06571
1.59051
1.60644
1.74617
1.89316
2.01844
2.10745
2.15702
2.17357
2.15938
2.11702
2.05307
1.97379
1.8845
1.78961
1.69277
1.59704
1.50483
1.41788
1.33738
1.26385
1.19762
1.14028
1.09686
1.79223
2.83175
5.73558
6.74519
6.58216
6.13029
0.794964
2.13316
3.34754
3.67218
3.47214
3.11321
0.226924
1.84629
2.44393
2.54121
2.32044
1.95747
0.256161
1.6533
2.00094
2.006
1.81395
1.57707
0.275781
1.49926
1.72621
1.69481
1.54672
1.41719
1.2287
1.39078
1.53321
1.49308
1.38935
1.33111
1.34744
1.29436
1.3881
1.35143
1.2889
1.27134
1.44165
1.21428
1.27439
1.24655
1.21443
1.22487
1.51035
1.14693
1.18238
1.16408
1.15256
1.18344
1.55393
1.08979
1.10594
1.09498
1.09757
1.14204
1.572
1.04138
1.04135
1.03421
1.04591
1.09872
1.5689
1.0013
0.985923
0.979395
0.995726
1.05358
1.54748
0.970768
0.938065
0.929217
0.946585
1.00836
1.51507
0.949648
0.896652
0.882781
0.899069
0.966319
1.46965
0.934459
0.860466
0.839594
0.854256
0.931366
1.40957
0.919783
0.827831
0.799393
0.813319
0.908192
1.3318
0.896621
0.796386
0.762087
0.777346
0.902336
1.21565
0.847963
0.763279
0.728014
0.747393
0.918962
0.277545
0.734561
0.727049
0.698855
0.725073
0.966079
0.267181
0.652699
0.696921
0.678775
0.713799
1.05296
0.25169
0.611798
0.688867
0.678181
0.720513
1.16816
0.230712
0.638107
0.724398
0.717518
0.759334
1.28818
0.870526
0.878346
0.909317
0.900742
0.899253
1.50281
2.18485
2.15435
2.01125
1.88533
1.58158
1.62442
1.91061
1.5065
1.52714
1.6564
1.78822
1.89297
1.95238
1.97522
1.96369
1.91962
1.85261
1.77109
1.68193
1.59035
1.50022
1.41429
1.3345
1.26227
1.19858
1.14401
1.09884
1.06304
1.03623
1.02021
1.63634
1.44431
1.49813
1.63273
1.76956
1.87601
1.93233
1.95052
1.93022
1.87527
1.79748
1.70654
1.60994
1.51317
1.42005
1.33309
1.25388
1.18329
1.1218
1.06951
1.02616
0.991354
0.964868
0.946702
1.4865
1.41589
1.50538
1.66531
1.83194
1.96906
2.04743
2.07685
2.06182
2.00415
1.9191
1.81883
1.71218
1.60545
1.50281
1.40692
1.31929
1.24069
1.17131
1.11099
1.05943
1.01648
0.982215
0.956076
1.40987
1.41226
1.54613
1.74884
1.96807
2.15946
2.28523
2.34195
2.34737
2.29782
2.21426
2.11184
1.9998
1.88557
1.77397
1.6679
1.56894
1.47783
1.39485
1.31997
1.25324
1.19497
1.14522
1.10373
1.36488
1.42911
1.60827
1.86657
2.15508
2.41451
2.59558
2.68744
2.70809
2.6605
2.56831
2.45096
2.32572
2.2013
2.08226
1.97079
1.86763
1.77278
1.68583
1.60629
1.53386
1.46858
1.40975
1.35351
1.33915
1.45415
1.67932
2.00088
2.36714
2.69334
2.90696
2.98895
2.95336
2.85546
2.72708
2.58965
2.45173
2.31908
2.19489
2.08046
1.97591
1.88066
1.79386
1.71458
1.64212
1.57622
1.51665
1.45225
1.32291
1.47829
1.74889
2.13865
2.58407
2.94682
3.12067
3.10444
3.01518
2.8768
2.71795
2.55394
2.39654
2.25145
2.12076
2.00424
1.9006
1.80798
1.72463
1.64888
1.57957
1.51518
1.46005
1.39019
1.30683
1.49554
1.81231
2.28087
2.80741
3.14213
3.20164
3.0892
2.86241
2.61002
2.36864
2.15116
1.96155
1.80015
1.66437
1.55024
1.45354
1.37015
1.29695
1.23088
1.17149
1.11187
1.06752
0.994441
1.286
1.50385
1.87467
2.45279
3.05066
3.32451
3.20132
2.83017
2.40398
2.0308
1.71955
1.46193
1.25003
1.08158
0.948157
0.84186
0.75579
0.684418
0.624002
0.570523
0.524754
0.477429
0.446512
0.393609
1.25874
1.50571
1.95409
2.7048
3.36807
3.43163
3.05564
2.40718
1.87998
1.47233
1.15446
0.908645
0.725958
0.588119
0.483095
0.402673
0.340973
0.292902
0.254657
0.223439
0.198078
0.175746
0.159532
0.13912
1.2264
1.50941
2.0866
3.10338
3.70282
3.48614
2.75204
2.03386
1.5251
1.15562
0.875522
0.665408
0.507015
0.388295
0.300914
0.236914
0.189745
0.154745
0.128367
0.108048
0.0923556
0.0799498
0.0707073
0.0628342
1.19333
1.53261
2.3367
3.66905
3.97706
3.44746
2.43054
1.75874
1.29783
0.963993
0.716255
0.529785
0.391419
0.290074
0.216387
0.163112
0.124768
0.0972591
0.0775259
0.0633378
0.052948
0.0453856
0.0401961
0.0375222
1.16803
1.60995
2.81135
4.27995
4.1139
3.14681
2.16103
1.53295
1.09414
0.778345
0.550765
0.390063
0.27882
0.202364
0.149551
0.112514
0.08606
0.0668991
0.0529097
0.0427131
0.0354206
0.0305016
0.0277918
0.0273626
1.16242
1.79078
3.61014
4.71589
4.15404
2.80751
1.89319
1.30025
0.887528
0.602671
0.40719
0.276342
0.190252
0.133807
0.0965906
0.0717741
0.0549496
0.0433123
0.0351221
0.029336
0.025371
0.0229232
0.0219706
0.0224727
1.1912
2.15042
4.64334
4.89974
3.85524
2.4588
1.62444
1.07067
0.701698
0.458346
0.30168
0.202158
0.138511
0.0971645
0.0698425
0.0515261
0.0391301
0.030719
0.0250641
0.0213882
0.0192111
0.0182581
0.0184085
0.0194242
1.28
2.83815
5.40182
4.96068
3.35541
2.1197
1.35338
0.855417
0.537803
0.340846
0.220742
0.147003
0.100916
0.0714296
0.0520894
0.0391126
0.0302625
0.0242031
0.0201282
0.0175482
0.0161537
0.0157707
0.0161696
0.0173803
1.46236
4.02373
5.66627
4.71545
2.89623
1.79444
1.0944
0.661003
0.402379
0.251068
0.161557
0.107385
0.0737531
0.0523582
0.038444
0.029222
0.0230299
0.0188721
0.0161572
0.0145383
0.013803
0.013829
0.014421
0.0156877
1.76842
5.39786
5.7038
4.2212
2.51569
1.47451
0.853188
0.497576
0.298609
0.185808
0.120027
0.0803921
0.0557448
0.0399809
0.0296617
0.0227932
0.0181913
0.0151433
0.0132198
0.0121624
0.0118127
0.0120163
0.0127481
0.0139466
2.28647
6.35515
5.7346
3.66432
2.08394
1.16115
0.647533
0.371452
0.221958
0.138534
0.090134
0.0609574
0.0427587
0.0310692
0.0233769
0.0182287
0.0147662
0.0124776
0.0110576
0.0103224
0.0101587
0.0104304
0.0111666
0.0122369
3.23429
6.74221
5.54002
3.14447
1.69439
0.89492
0.484681
0.27569
0.165396
0.104168
0.0684917
0.0468322
0.0332249
0.0244284
0.0186088
0.0146977
0.0120614
0.0103218
0.00925501
0.00872816
0.00865978
0.00894385
0.00962474
0.0105656
4.83465
6.88021
5.10778
2.65973
1.31745
0.666691
0.357964
0.20516
0.124525
0.0793542
0.0527733
0.0364909
0.0261782
0.0194607
0.0149849
0.0119575
0.00990526
0.00854522
0.00771023
0.00730271
0.0072636
0.00751923
0.00811016
0.00892535
7.33335
7.34026
4.57131
2.09143
0.977344
0.488876
0.264942
0.153964
0.0947049
0.0610904
0.0410908
0.0287221
0.0208206
0.0156326
0.0121491
0.00977383
0.00814855
0.00705796
0.00637523
0.00602783
0.00597373
0.00617021
0.00664946
0.00734361
9.76488
7.73963
3.49756
1.52442
0.704015
0.357047
0.197272
0.116624
0.0727652
0.0475125
0.0323055
0.0228051
0.0166822
0.0126296
0.0098869
0.00800017
0.0066936
0.00579966
0.00521908
0.00489574
0.00479954
0.00491313
0.00526437
0.00583931
12.6747
7.20726
2.73028
1.09961
0.506285
0.262618
0.148352
0.0892552
0.0564747
0.0373076
0.0256214
0.0182446
0.0134478
0.0102472
0.00806382
0.0065477
0.00548325
0.00473701
0.00422794
0.00390907
0.0037555
0.00376486
0.00396751
0.00441294
)
;

boundaryField
{
    rotor
    {
        type            epsilonWallFunction;
        value           nonuniform List<scalar> 
144
(
2.67183
5.53173
7.93815
8.56067
9.00022
35.4069
2.67183
1.02072
0.266597
1.22318
1.44047
1.61037
1.73966
1.82996
1.88518
1.91013
1.90977
1.88921
1.84855
1.78413
1.69533
1.58148
1.44335
1.28581
0.279894
0.268917
0.25264
0.230089
0.861562
2.03357
2.03357
1.66321
2.15651
3.65519
4.41387
3.87042
2.57139
4.71942
7.10018
6.58954
5.39291
4.26318
2.57139
1.00869
0.279913
1.45197
1.92644
2.34525
2.69868
2.98401
3.20353
3.36144
3.46218
3.50952
3.51172
3.49492
3.45043
3.37018
3.24583
3.0679
2.8248
2.5024
2.08931
1.58575
1.14117
3.16636
3.16636
4.09321
5.64223
6.29737
6.672
27.5956
2.40448
3.77799
4.54438
4.23782
3.35765
2.95485
2.40448
0.955856
1.24741
1.67306
2.05405
2.38575
2.66863
2.90494
3.09774
3.25084
3.36953
3.44858
3.46734
3.43459
3.34005
3.18459
2.96901
2.69452
2.36208
1.96635
1.48515
0.280583
0.994362
2.16716
2.16716
4.03612
5.20529
6.03846
6.3164
6.14325
1.79223
2.83175
5.73558
6.74519
6.58216
6.13029
1.79223
0.794964
0.226924
0.256161
0.275781
1.2287
1.34744
1.44165
1.51035
1.55393
1.572
1.5689
1.54748
1.51507
1.46965
1.40957
1.3318
1.21565
0.277545
0.267181
0.25169
0.230712
0.870526
2.18485
2.18485
2.15435
2.01125
1.88533
1.58158
1.62442
)
;
    }
    freestream
    {
        type            inletOutlet;
        inletValue      uniform 0.000375;
        value           nonuniform List<scalar> 
96
(
0.00305746
0.00177799
0.000375
0.000375
0.000375
0.000375
0.000375
0.000375
0.000375
0.000375
0.000375
0.000375
0.000375
0.000375
0.000375
0.000375
0.000375
0.000375
0.000375
0.000375
0.000375
0.000375
0.000375
0.000375
0.000375
0.000375
0.000375
0.000375
0.000375
0.000375
0.000375
0.000375
0.000375
0.000375
0.000375
0.000375
0.000375
0.000375
0.000375
0.000375
0.000375
0.000375
0.000375
0.000375
0.000375
0.000375
0.000375
0.000375
0.00359758
0.00718298
0.0113735
0.0161124
0.021496
0.0276026
0.0345092
0.0423115
0.0511546
0.0612466
0.0728484
0.086321
0.10228
0.121703
0.146084
0.177715
0.220121
0.279114
0.365318
0.495937
0.68317
0.906052
1.06537
1.09686
1.02021
0.946702
0.956076
1.10373
1.35351
1.45225
1.39019
0.994441
0.393609
0.13912
0.0628342
0.0375222
0.0273626
0.0224727
0.0194242
0.0173803
0.0156877
0.0139466
0.0122369
0.0105656
0.00892535
0.00734361
0.00583931
0.00441294
)
;
    }
    frontAndBack
    {
        type            empty;
    }
}

