/*--------------------------------*- C++ -*----------------------------------*\
  =========                 |
  \\      /  F ield         | OpenFOAM: The Open Source CFD Toolbox
   \\    /   O peration     | Website:  https://openfoam.org
    \\  /    A nd           | Version:  11
     \\/     M anipulation  |
\*---------------------------------------------------------------------------*/
FoamFile
{
    format      ascii;
    class       volScalarField;
    location    "0.74";
    object      k;
}
// * * * * * * * * * * * * * * * * * * * * * * * * * * * * * * * * * * * * * //

dimensions      [0 2 -2 0 0 0 0];

internalField   nonuniform List<scalar> 
2880
(
0.00571283
0.0228839
0.0540163
0.0867886
0.127229
0.143119
0.0196037
0.0499154
0.0874604
0.124647
0.160742
0.208416
0.0236219
0.0629683
0.102093
0.138751
0.168556
0.19248
0.0254251
0.0711759
0.108981
0.141554
0.160532
0.165437
0.0283493
0.0762444
0.111597
0.138404
0.146487
0.142674
0.0305381
0.0793391
0.111903
0.132379
0.133117
0.124955
0.0321517
0.0811157
0.110943
0.12591
0.122888
0.111581
0.0332556
0.0819724
0.109346
0.120284
0.115041
0.102201
0.0339229
0.0821313
0.107517
0.115787
0.109061
0.0955517
0.0342237
0.0817093
0.105649
0.112301
0.104537
0.0907082
0.0342219
0.0807628
0.103805
0.109587
0.10118
0.0871059
0.0339793
0.0793197
0.101979
0.107402
0.0987739
0.0844321
0.0334949
0.0773671
0.10013
0.105637
0.0971067
0.0824925
0.0327166
0.0748781
0.0981972
0.10419
0.0960291
0.081172
0.0316259
0.0718178
0.0960816
0.102926
0.0954265
0.0803963
0.0301968
0.0681511
0.0936396
0.101701
0.0951834
0.080114
0.0284176
0.0638337
0.0906704
0.100343
0.0951627
0.0802866
0.0263576
0.0588134
0.0868967
0.0986442
0.0952112
0.0808778
0.0248978
0.0530418
0.0819256
0.0963209
0.0951318
0.0818233
0.023845
0.0466261
0.075186
0.0929652
0.0943874
0.0828867
0.0224201
0.0397078
0.0660687
0.0877218
0.0923353
0.0836904
0.0204232
0.0319511
0.054029
0.0788538
0.0878677
0.0835389
0.0165748
0.0223044
0.0378272
0.0628205
0.0781111
0.07886
0.00435562
0.00690235
0.0147333
0.037168
0.0623175
0.0726501
0.186668
0.16926
0.128253
0.097727
0.0776046
0.0633542
0.0526417
0.0443385
0.0378025
0.0326135
0.0284704
0.0251462
0.0224664
0.0202954
0.0185283
0.017084
0.0159001
0.0149302
0.014141
0.0135111
0.0130298
0.012718
0.0127124
0.0132946
0.201564
0.156235
0.113859
0.0876338
0.0703802
0.0579278
0.048392
0.0408997
0.0349467
0.0301877
0.026365
0.0232793
0.0207742
0.0187269
0.0170405
0.015638
0.0144572
0.0134468
0.012563
0.0117655
0.0110149
0.010288
0.00965064
0.00948972
0.175008
0.131252
0.0994401
0.0784923
0.0639688
0.0530831
0.0445575
0.0377686
0.0323275
0.0279497
0.0244131
0.0215419
0.0191963
0.017265
0.015659
0.0143066
0.0131482
0.012133
0.0112142
0.0103432
0.00946247
0.00850634
0.00741999
0.00585359
0.147292
0.112894
0.0878237
0.0707419
0.0583534
0.0487575
0.0410946
0.0349201
0.0299319
0.0258939
0.0226148
0.0199397
0.0177435
0.0159259
0.0144062
0.013119
0.0120106
0.0110354
0.0101529
0.00932249
0.00849654
0.00762319
0.00666032
0.00536099
0.123542
0.0976126
0.0782149
0.064177
0.0534672
0.0449216
0.0379862
0.032342
0.0277507
0.024014
0.0209663
0.0184702
0.016414
0.0147073
0.0132771
0.0120644
0.011021
0.0101065
0.00928575
0.00852316
0.0077752
0.00699728
0.00616952
0.00512483
0.106503
0.0862579
0.0705891
0.0586664
0.0492273
0.0415313
0.0352066
0.0300174
0.0257714
0.0223003
0.0194589
0.0171251
0.0151982
0.0135965
0.0122535
0.0111157
0.0101392
0.00928762
0.00852945
0.00783259
0.00715761
0.00646821
0.00576021
0.00491816
0.0947612
0.0777586
0.0644556
0.0540238
0.045556
0.0385454
0.0327297
0.0279279
0.0239804
0.0207417
0.0180831
0.0158949
0.0140857
0.012581
0.01132
0.0102533
0.00934094
0.00854965
0.00785094
0.00721593
0.00660973
0.00600406
0.00540434
0.00472773
0.0863719
0.0712579
0.0594771
0.0501028
0.0423797
0.0359217
0.0305288
0.026055
0.022364
0.0193274
0.0168297
0.0147711
0.0130681
0.011652
0.0104668
0.00946685
0.00861524
0.00788158
0.00724003
0.00666469
0.00612496
0.00559906
0.00509682
0.00455701
0.0801802
0.0661733
0.0553942
0.0467828
0.0396347
0.0336219
0.0285787
0.0243811
0.0209092
0.0180476
0.0156907
0.013747
0.0121393
0.0108039
0.00968874
0.00875155
0.00795799
0.00728011
0.00669428
0.00617709
0.00570149
0.00525032
0.00483419
0.00440698
0.0754737
0.0621288
0.0520245
0.0439705
0.0372674
0.031612
0.0268564
0.0228901
0.0196044
0.0168934
0.0146594
0.0128172
0.011295
0.0100331
0.00898299
0.00810513
0.00736746
0.00674392
0.00621259
0.0057518
0.0053372
0.00495451
0.00461292
0.00427738
0.0718298
0.0588827
0.0492393
0.0415933
0.0352328
0.0298624
0.0253415
0.0215674
0.018439
0.0158569
0.0137296
0.011977
0.0105314
0.00933674
0.00834727
0.0075258
0.0068421
0.00627151
0.00579314
0.00538636
0.00502867
0.00470731
0.00442893
0.00416709
0.0689941
0.0562788
0.0469459
0.0395934
0.033493
0.0283471
0.0240159
0.0204001
0.0174033
0.014931
0.012896
0.0112222
0.0098453
0.00871209
0.00777923
0.00701139
0.00637969
0.00586032
0.00543276
0.00507681
0.00477108
0.00450346
0.00427778
0.0040745
0.06681
0.0542107
0.0450744
0.0379244
0.0320166
0.0270441
0.0228636
0.0193765
0.0164888
0.0141091
0.0121534
0.0105487
0.00923319
0.00815613
0.00727604
0.00655902
0.00597707
0.00550666
0.00512708
0.00481802
0.00455877
0.00433733
0.00415501
0.00399786
0.065176
0.0526038
0.043572
0.0365498
0.0307777
0.0259351
0.0218714
0.0184867
0.0156878
0.0133852
0.0114971
0.00995235
0.00869151
0.00766551
0.00683437
0.00616516
0.00563028
0.00520596
0.00487084
0.0046042
0.00438574
0.00420341
0.00405645
0.00393541
0.0640261
0.0514057
0.0424001
0.0354417
0.0297561
0.025005
0.0210281
0.0177221
0.0149936
0.0127538
0.0109222
0.00942911
0.00821646
0.00723655
0.00645041
0.00582569
0.0053347
0.00495302
0.00465834
0.00442935
0.00424613
0.00409658
0.00397837
0.00388545
0.0633191
0.0505813
0.0415316
0.0345798
0.0289365
0.0242423
0.0203245
0.0170755
0.0144003
0.01221
0.0104245
0.00897493
0.00780414
0.00686529
0.00612001
0.0055361
0.00508539
0.00474242
0.00448379
0.00428764
0.00413451
0.00401228
0.00391745
0.00384637
0.0630342
0.0501099
0.0409496
0.0339506
0.028308
0.0236382
0.0197538
0.0165411
0.013903
0.0117493
0.00999983
0.0085859
0.00745063
0.00654766
0.00583885
0.00529173
0.00487729
0.0045688
0.00434169
0.00417375
0.00404603
0.00394657
0.00387086
0.00381664
0.0631721
0.0499844
0.0406467
0.0335471
0.0278639
0.0231869
0.0193108
0.0161146
0.0134976
0.0113681
0.00964469
0.00825837
0.00715214
0.00627963
0.00560257
0.00508789
0.00470544
0.00442705
0.00422703
0.0040829
0.00397642
0.00389591
0.00383604
0.00379484
0.0637587
0.0502134
0.0406257
0.0333688
0.0276018
0.0228851
0.0189923
0.0157927
0.0131812
0.0110633
0.009356
0.00798919
0.00690524
0.00605742
0.005407
0.00492007
0.00456511
0.00431245
0.00413528
0.00401095
0.00392188
0.00385694
0.00381045
0.0037793
0.064851
0.0508221
0.0408969
0.0334215
0.0275229
0.0227317
0.0187968
0.0155734
0.0129516
0.0108327
0.00913146
0.00777583
0.00670712
0.00587783
0.00524851
0.00478425
0.00445208
0.0042208
0.00406256
0.00395451
0.0038796
0.00382713
0.00379146
0.00376817
0.0665443
0.0518579
0.0414852
0.0337157
0.0276314
0.0227274
0.018724
0.0154559
0.0128076
0.0106751
0.00896953
0.00761656
0.00655579
0.00573855
0.00512444
0.00467743
0.00436313
0.0041489
0.0040059
0.00391105
0.00384761
0.003805
0.00377747
0.00376046
0.0689629
0.0533924
0.0424238
0.0342703
0.0279352
0.0228749
0.0187675
0.0154397
0.0127487
0.0105895
0.00886937
0.00751038
0.00645005
0.0056381
0.005033
0.00459756
0.00429604
0.00409444
0.00396301
0.00387837
0.00382393
0.00378911
0.00376781
0.00375566
0.0722379
0.0555197
0.0437518
0.0350999
0.0284415
0.0231795
0.0189407
0.015518
0.0127709
0.010576
0.00883074
0.00745678
0.0063893
0.00557561
0.00497299
0.00454316
0.00424913
0.00405568
0.00393216
0.00385479
0.00380696
0.003778
0.00376147
0.00375288
0.0764791
0.0583311
0.0454949
0.0362084
0.0291493
0.0236398
0.0192389
0.0157057
0.0128782
0.0106281
0.00885058
0.00745567
0.00637365
0.00555077
0.00494369
0.00451325
0.00422122
0.00403134
0.00391207
0.0038391
0.00379557
0.0037706
0.00375756
0.00375142
0.00552202
0.0195161
0.0482732
0.066672
0.0760699
0.0799762
0.0190866
0.0388752
0.0659231
0.0808369
0.0876311
0.0896511
0.0249286
0.0563605
0.0800542
0.0912412
0.0949417
0.0946698
0.0287692
0.068698
0.0895676
0.0984543
0.100667
0.0986623
0.0344673
0.0773405
0.0967211
0.104371
0.10579
0.102648
0.0392818
0.0837329
0.102502
0.1097
0.110767
0.1069
0.0431343
0.0886029
0.107415
0.11477
0.115835
0.111554
0.0461231
0.0923707
0.111731
0.119754
0.121131
0.116726
0.0483579
0.0953006
0.1156
0.12473
0.126747
0.122523
0.0499338
0.0975532
0.119094
0.129727
0.132757
0.129043
0.0509261
0.099217
0.122235
0.134728
0.139204
0.136377
0.0513889
0.10031
0.12501
0.139673
0.146096
0.144594
0.0514095
0.100752
0.127386
0.144461
0.153388
0.153735
0.0512454
0.10044
0.129255
0.148981
0.16093
0.163788
0.05081
0.0992883
0.13043
0.153039
0.168501
0.174641
0.05002
0.0972031
0.130656
0.156305
0.175769
0.186097
0.0487834
0.0940354
0.129684
0.158336
0.182217
0.197774
0.0469859
0.0896138
0.127055
0.158565
0.187098
0.208972
0.0444726
0.0837902
0.122451
0.156576
0.189377
0.218742
0.0410241
0.07644
0.115528
0.151323
0.188002
0.225748
0.0363784
0.0674964
0.105964
0.142144
0.181184
0.228019
0.0302721
0.0567984
0.0931912
0.127838
0.166039
0.223726
0.0219495
0.0431085
0.0752971
0.106027
0.138792
0.20407
0.0067852
0.0169657
0.0384454
0.0639258
0.0944177
0.121187
0.080841
0.0617918
0.0476182
0.0375712
0.0300473
0.0242501
0.0196599
0.015996
0.0130765
0.0107609
0.00893452
0.00750506
0.00639983
0.00556209
0.00494491
0.0045076
0.00421188
0.00402082
0.00390206
0.00383055
0.00378899
0.00376637
0.00375542
0.00375081
0.0841783
0.0651781
0.049947
0.0391278
0.0311138
0.0250026
0.0202012
0.016389
0.0133626
0.0109692
0.00908578
0.00761419
0.00647723
0.0056147
0.00497849
0.00452717
0.00422166
0.00402444
0.00390233
0.00382941
0.00378751
0.00376531
0.00375485
0.00375066
0.0870366
0.0682258
0.0523228
0.0408193
0.0323274
0.0258901
0.0208617
0.0168859
0.0137392
0.0112558
0.00930465
0.00778124
0.0066038
0.00570889
0.00504643
0.00457404
0.00425229
0.00404343
0.0039136
0.00383588
0.00379111
0.00376717
0.00375574
0.00375096
0.0898122
0.0710878
0.0547236
0.0426277
0.03368
0.0269113
0.021643
0.0174902
0.0142101
0.011625
0.00959524
0.00801027
0.00678357
0.00584821
0.00515183
0.004651
0.00430621
0.00407979
0.00393748
0.00385127
0.00380078
0.00377262
0.00375853
0.00375202
0.0928225
0.0739925
0.0572143
0.0445742
0.0351808
0.0280727
0.0225513
0.0182077
0.0147812
0.0120822
0.00996275
0.00830621
0.0070212
0.00603705
0.00529887
0.00476204
0.00438704
0.00413659
0.00397631
0.00387725
0.00381755
0.00378266
0.00376387
0.00375454
0.0962486
0.0771415
0.059896
0.0467059
0.0368529
0.0293884
0.023597
0.019047
0.0154599
0.0126342
0.0104135
0.00867494
0.00732216
0.00628063
0.00549264
0.0049121
0.0044994
0.0042179
0.00403349
0.00391646
0.00384348
0.0037988
0.00377314
0.00375929
0.100227
0.0807046
0.0628818
0.0490847
0.0387308
0.0308793
0.0247946
0.0200193
0.0162558
0.0132893
0.010955
0.00912327
0.00769283
0.006585
0.005739
0.00510694
0.00464886
0.00432884
0.00411343
0.00397254
0.00388151
0.00382323
0.00378762
0.00376708
0.104885
0.0848344
0.0662893
0.0517822
0.0408577
0.0325726
0.0261626
0.0211385
0.0171799
0.0140571
0.0115957
0.00965903
0.00814048
0.00695707
0.00604466
0.00535319
0.00484199
0.0044757
0.00422182
0.00405034
0.00393541
0.0038585
0.00380867
0.00377863
0.110355
0.0896822
0.0702447
0.0548822
0.0432857
0.0345017
0.0277235
0.022421
0.0182452
0.0149487
0.0123454
0.0102912
0.00867349
0.00740483
0.00641742
0.00565865
0.00508661
0.00466617
0.00436576
0.00415582
0.00400967
0.0039077
0.003839
0.00379562
0.116776
0.0954111
0.0748884
0.0584834
0.0460782
0.0367069
0.0295041
0.0238858
0.0194664
0.0159762
0.013215
0.0110297
0.00930137
0.00793744
0.00686627
0.00603225
0.00539173
0.00490916
0.00455368
0.00429642
0.0041104
0.00397569
0.00388201
0.00382005
0.124296
0.102203
0.0803836
0.0627047
0.0493132
0.0392378
0.0315366
0.0255553
0.0208604
0.0171533
0.0142165
0.0118857
0.0100346
0.008565
0.00740103
0.00648369
0.005767
0.00521435
0.00479509
0.00448102
0.00424532
0.00406848
0.0039417
0.00385387
0.133067
0.110262
0.0869237
0.067692
0.0530872
0.0421553
0.0338602
0.0274556
0.0224461
0.0184951
0.0153627
0.0128709
0.0108841
0.00929815
0.00803206
0.00702313
0.00622253
0.00559197
0.00510031
0.00471965
0.00442347
0.00419327
0.00402286
0.00389931
0.143235
0.119815
0.0947375
0.0736256
0.0575223
0.0455365
0.0365227
0.0296179
0.024245
0.0200179
0.0166672
0.0139973
0.0118615
0.0101478
0.00877003
0.00766103
0.00676873
0.00605254
0.00548011
0.00502316
0.00465505
0.00435857
0.00413139
0.00395904
0.154921
0.131101
0.104089
0.0807263
0.0627725
0.0494789
0.0395844
0.03208
0.0262824
0.0217398
0.0181443
0.0152773
0.0129779
0.011125
0.0096256
0.00840794
0.00741614
0.00660674
0.00594544
0.00540271
0.004951
0.004574
0.00427426
0.00403618
0.168187
0.14436
0.115269
0.0892574
0.0690308
0.0541072
0.043122
0.034889
0.0285882
0.0236813
0.0198093
0.0167234
0.0142446
0.01224
0.0106091
0.00927419
0.00817512
0.00726505
0.00650702
0.00586934
0.00532241
0.00484983
0.00445935
0.00413427
0.182929
0.159818
0.128563
0.0995134
0.0765315
0.0595794
0.0472332
0.0381044
0.0311993
0.0258662
0.0216787
0.0183482
0.0156722
0.013503
0.0117302
0.0102695
0.00905556
0.00803755
0.00717518
0.00643364
0.00578004
0.00519638
0.00469494
0.00425702
0.198917
0.17755
0.144183
0.111787
0.0855437
0.0660906
0.0520433
0.0418025
0.034162
0.0283236
0.0237717
0.0201656
0.0172716
0.0149232
0.0129978
0.0114027
0.0100665
0.00893365
0.00795963
0.00710561
0.0063341
0.00562355
0.00498915
0.00440784
0.215975
0.197142
0.16216
0.126308
0.0963466
0.0738708
0.0577091
0.0460812
0.0375359
0.0310901
0.0261117
0.0221911
0.0190541
0.0165098
0.0144199
0.0126817
0.0112161
0.00996181
0.00886931
0.00789465
0.00699426
0.00614078
0.0053496
0.00458908
0.233398
0.217853
0.182311
0.143153
0.109178
0.0831687
0.0644192
0.0510648
0.0413985
0.0342133
0.0287283
0.024444
0.021033
0.0182726
0.0160048
0.0141138
0.0125116
0.0111297
0.00991243
0.00880964
0.00777001
0.00675751
0.00578363
0.00480135
0.250011
0.238409
0.204063
0.162111
0.124138
0.0942083
0.0723837
0.0569054
0.0458486
0.0377555
0.0316609
0.0269498
0.0232255
0.020224
0.0177621
0.0157074
0.0139607
0.012445
0.0110972
0.00985959
0.00867141
0.00748437
0.00629953
0.00504329
0.264098
0.257091
0.226091
0.182489
0.141047
0.107105
0.0818011
0.0637757
0.051009
0.0417975
0.0349621
0.0297432
0.0256557
0.0223817
0.0197056
0.0174742
0.0155742
0.0139181
0.0124342
0.0110558
0.0097112
0.00833565
0.0069096
0.00531245
0.27301
0.271408
0.246264
0.202991
0.159293
0.121743
0.0927926
0.0718462
0.0570218
0.0464407
0.0387007
0.0328718
0.0283575
0.024772
0.0218574
0.0194343
0.0173716
0.0155689
0.0139437
0.0124194
0.0109118
0.00933647
0.00763804
0.00560945
0.270036
0.278265
0.261262
0.222
0.177814
0.137663
0.105308
0.0812376
0.0640329
0.0518043
0.042964
0.0363981
0.0313782
0.0274332
0.0242522
0.0216222
0.0193899
0.0174385
0.0156723
0.0140022
0.0123308
0.0105506
0.00855027
0.0059629
0.226737
0.271416
0.265702
0.237267
0.195109
0.154013
0.119035
0.0919515
0.0721585
0.0580147
0.0478552
0.0404007
0.0347784
0.0304164
0.0269384
0.02409
0.0216906
0.0196045
0.0177207
0.0159362
0.0141395
0.0121972
0.00991837
0.00672353
0.00513329
0.0156654
0.0309994
0.0430994
0.0476418
0.0557713
0.0183449
0.0399204
0.0599202
0.0712109
0.0735285
0.0820738
0.0257508
0.0527865
0.0752649
0.0865909
0.0895665
0.0961706
0.0313228
0.062625
0.0864181
0.0980358
0.102086
0.108498
0.0359181
0.0710307
0.0954817
0.107615
0.11306
0.119996
0.0396916
0.0783096
0.103087
0.115952
0.122975
0.13069
0.0427727
0.0845106
0.109469
0.123233
0.131903
0.140707
0.0452634
0.0896537
0.114727
0.129487
0.139783
0.149934
0.047245
0.0937651
0.118926
0.134695
0.146512
0.158025
0.0487886
0.0968745
0.122115
0.138837
0.151988
0.164723
0.0499675
0.099005
0.12434
0.141898
0.15614
0.169857
0.0507443
0.1002
0.125634
0.143882
0.158937
0.17334
0.050927
0.100503
0.125975
0.144769
0.160348
0.17509
0.050604
0.100007
0.125501
0.144682
0.160505
0.17529
0.0496694
0.0986789
0.124149
0.14361
0.159533
0.174112
0.048114
0.0964949
0.121898
0.14158
0.157498
0.171677
0.0459148
0.0933975
0.118687
0.138593
0.1545
0.168207
0.0430343
0.0892876
0.114402
0.134594
0.150616
0.163925
0.039405
0.0840044
0.108843
0.129428
0.145847
0.159013
0.0348396
0.077293
0.101684
0.122797
0.140057
0.153571
0.0288077
0.0687305
0.0923841
0.114138
0.132828
0.147499
0.0249241
0.0574699
0.0799822
0.102405
0.123223
0.140119
0.0193706
0.0419144
0.0622181
0.0854024
0.109155
0.128828
0.00469713
0.0166832
0.0353853
0.061256
0.0894956
0.116301
0.162909
0.246572
0.260693
0.245056
0.209537
0.169674
0.133384
0.103814
0.0814422
0.065184
0.0534852
0.04497
0.0386291
0.0337797
0.0299692
0.0268941
0.0243441
0.022166
0.0202405
0.0184661
0.0167483
0.0150215
0.0134101
0.0126125
0.121104
0.211858
0.247136
0.243011
0.219765
0.183458
0.147556
0.116445
0.0918069
0.0733784
0.0599572
0.0501997
0.0430028
0.0375754
0.0333816
0.0300629
0.0273788
0.0251669
0.0233205
0.0217737
0.0204924
0.0194957
0.0189807
0.0193801
0.116042
0.184803
0.22721
0.236218
0.223505
0.194346
0.160681
0.1293
0.10303
0.0825845
0.0673449
0.0561764
0.0479677
0.0418453
0.0371904
0.0335858
0.0307585
0.0285388
0.0268324
0.0255992
0.0248309
0.024552
0.0248559
0.0257964
0.126329
0.172288
0.208622
0.224533
0.220793
0.201913
0.171996
0.141722
0.114729
0.0926701
0.075662
0.062966
0.0535884
0.046631
0.0414099
0.0374508
0.0344469
0.0322161
0.0306641
0.0297483
0.0294417
0.0297012
0.0305277
0.0317555
0.141285
0.172104
0.196668
0.212283
0.214339
0.204137
0.180694
0.152963
0.126364
0.103354
0.084827
0.0705913
0.0599188
0.051979
0.0460636
0.0416547
0.0384119
0.036133
0.0347072
0.0340654
0.0341308
0.034775
0.0359757
0.0373764
0.15177
0.176886
0.194774
0.202414
0.205941
0.201837
0.186408
0.162346
0.13729
0.114193
0.0946247
0.0789986
0.0669847
0.0579352
0.0511868
0.0462077
0.0426311
0.0402291
0.0388611
0.0384184
0.0387351
0.0396913
0.0411534
0.0426863
0.160149
0.186042
0.198967
0.198743
0.198433
0.196896
0.187861
0.169024
0.146762
0.124607
0.104691
0.0880235
0.0747535
0.0645292
0.0568218
0.0511364
0.0471003
0.0444622
0.0430464
0.0426987
0.043165
0.0443398
0.0459975
0.0476415
0.167915
0.194442
0.207607
0.202157
0.19487
0.191679
0.186053
0.172852
0.154164
0.133927
0.114506
0.0973536
0.0830926
0.0717419
0.0629998
0.0564778
0.0518356
0.0488154
0.0472127
0.046832
0.0473441
0.0486357
0.0504315
0.0521708
0.17532
0.200987
0.217022
0.211471
0.197002
0.18838
0.183097
0.173427
0.158967
0.141531
0.12348
0.106547
0.0917442
0.07947
0.0697137
0.062265
0.0568704
0.0532996
0.0513408
0.0507721
0.0512185
0.0525074
0.0543784
0.0561938
0.181983
0.206345
0.225136
0.222722
0.205219
0.189623
0.180855
0.172709
0.16139
0.147006
0.131025
0.115056
0.100309
0.0874875
0.0768782
0.0685002
0.0622432
0.0579526
0.0554464
0.0545034
0.0547628
0.0559018
0.0577686
0.0596316
0.187419
0.21079
0.231243
0.233109
0.219793
0.195664
0.181758
0.172289
0.162326
0.150467
0.136808
0.122384
0.108312
0.0954422
0.0842952
0.0751161
0.0679723
0.06283
0.059584
0.0580522
0.0579804
0.0588001
0.0605489
0.0624195
0.191242
0.214076
0.235257
0.242362
0.23397
0.209219
0.186933
0.173567
0.163024
0.152553
0.140884
0.128212
0.115325
0.102935
0.0916728
0.0819585
0.0740273
0.0679876
0.06385
0.0615266
0.060835
0.0612884
0.0626959
0.0645138
0.19313
0.215728
0.237423
0.249137
0.245636
0.226567
0.199195
0.179014
0.165581
0.15457
0.143908
0.132679
0.12107
0.109594
0.0986754
0.0887931
0.0803062
0.0734485
0.0683536
0.0650556
0.0634739
0.0634163
0.0642596
0.0659217
0.19321
0.215563
0.237619
0.252895
0.254374
0.242942
0.21681
0.191533
0.172566
0.158702
0.147289
0.13658
0.12588
0.115251
0.104988
0.0953266
0.0866169
0.0791618
0.0731854
0.0688369
0.0661782
0.0651823
0.0654883
0.0666942
0.191552
0.213414
0.235699
0.253388
0.260296
0.254832
0.235782
0.209807
0.186435
0.167982
0.153604
0.141627
0.130798
0.120543
0.110721
0.101413
0.0927619
0.0850012
0.078362
0.0730462
0.0692183
0.0669992
0.0664664
0.0670643
0.188313
0.209312
0.231484
0.250865
0.262334
0.26244
0.251706
0.229976
0.205985
0.18403
0.165681
0.150652
0.13801
0.126917
0.116859
0.107553
0.0989087
0.0909847
0.0839064
0.0778289
0.0729228
0.0693824
0.0674626
0.0673956
0.183771
0.203477
0.225041
0.245342
0.260097
0.265803
0.26169
0.247798
0.227263
0.20522
0.184385
0.166043
0.150375
0.137017
0.125463
0.115248
0.106052
0.0977107
0.0901726
0.0834608
0.0776524
0.0728816
0.0694385
0.068145
0.178267
0.196292
0.21668
0.237053
0.253877
0.264001
0.265653
0.259383
0.245215
0.226718
0.20669
0.187072
0.169029
0.153032
0.139079
0.126915
0.116232
0.106763
0.0983159
0.090767
0.0840597
0.0781912
0.0732629
0.0702977
0.172171
0.188252
0.206942
0.226522
0.244127
0.257043
0.263492
0.262882
0.255898
0.243
0.226754
0.208923
0.19095
0.173825
0.158087
0.143923
0.131306
0.120105
0.110158
0.1013
0.0934017
0.0863611
0.0800796
0.075219
0.165845
0.179905
0.196544
0.21457
0.231715
0.245816
0.255093
0.258863
0.257084
0.250272
0.239084
0.22521
0.209858
0.194052
0.178545
0.163822
0.150153
0.137644
0.126299
0.116052
0.106819
0.0984933
0.0909821
0.0843234
0.159617
0.171767
0.186267
0.20227
0.217989
0.231688
0.242026
0.248009
0.24969
0.247204
0.240836
0.231379
0.219886
0.207164
0.193881
0.180576
0.167647
0.155345
0.143808
0.133088
0.123182
0.11406
0.105773
0.0980491
0.153718
0.16426
0.176807
0.190721
0.204532
0.216806
0.22651
0.232913
0.235887
0.235692
0.23247
0.226501
0.218552
0.209185
0.198939
0.188259
0.177514
0.167008
0.156906
0.147324
0.138288
0.129704
0.121734
0.114487
0.148176
0.157662
0.168637
0.180779
0.192784
0.203325
0.211563
0.216983
0.21959
0.219853
0.217709
0.213534
0.207793
0.200906
0.193248
0.185139
0.17684
0.168558
0.160518
0.152902
0.145905
0.13964
0.134094
0.12959
0.142968
0.152097
0.161943
0.172865
0.18362
0.192817
0.19968
0.203697
0.205319
0.204875
0.202436
0.19846
0.193365
0.187521
0.181239
0.174786
0.168383
0.162216
0.156422
0.151097
0.146287
0.142095
0.13879
0.136854
0.00384889
0.0117777
0.0392145
0.068611
0.0933145
0.11584
0.0153138
0.0249145
0.055657
0.0816651
0.102821
0.121459
0.0201649
0.0372068
0.067191
0.0895716
0.107377
0.122007
0.0227626
0.0456264
0.0737874
0.0935799
0.108929
0.121012
0.0245056
0.0514169
0.0775785
0.0954413
0.108947
0.119315
0.0255749
0.0555666
0.0795933
0.0959429
0.108071
0.117157
0.0271962
0.058224
0.0804189
0.0955701
0.106523
0.114603
0.0284483
0.0597875
0.0803955
0.0944519
0.10446
0.111688
0.0293435
0.0605059
0.0797314
0.0927954
0.101968
0.108452
0.0299037
0.0605538
0.0785742
0.0907051
0.0991124
0.104946
0.0301328
0.0600562
0.0770208
0.0882589
0.0959514
0.101239
0.0300921
0.0590943
0.075133
0.0855146
0.0925388
0.0974051
0.0298164
0.0576936
0.0729454
0.0825135
0.088922
0.0935207
0.0293978
0.0558713
0.0704742
0.0792804
0.0851393
0.0896615
0.0288067
0.0536457
0.0677173
0.0758269
0.0812173
0.0858974
0.0280159
0.0509956
0.0646566
0.0721559
0.077171
0.0822815
0.0269757
0.0478618
0.0612704
0.0682651
0.0730046
0.0788855
0.0253827
0.0442154
0.0575599
0.0641516
0.0687083
0.0758641
0.0246505
0.0404791
0.0535838
0.0598071
0.0642463
0.0731571
0.0237295
0.0370505
0.049383
0.0551905
0.0595881
0.0702946
0.0223534
0.0336713
0.0447955
0.0501576
0.0545476
0.0666816
0.0204902
0.0298007
0.0392921
0.0443219
0.048515
0.0612943
0.0167594
0.0239576
0.0312781
0.0364529
0.0395629
0.0549635
0.00468786
0.00893849
0.0137111
0.0191338
0.0223824
0.030595
0.139107
0.147608
0.156647
0.166951
0.17723
0.186016
0.192475
0.195916
0.19703
0.196026
0.193124
0.188845
0.18364
0.177892
0.171917
0.165972
0.160267
0.154976
0.150238
0.146155
0.142792
0.140193
0.138371
0.137373
0.136367
0.143914
0.152482
0.162723
0.173281
0.182567
0.189537
0.193322
0.194571
0.193671
0.190851
0.186653
0.181546
0.175923
0.170103
0.164342
0.158841
0.153755
0.14921
0.145295
0.142062
0.139533
0.137719
0.136581
0.13376
0.140699
0.149035
0.15955
0.170812
0.181057
0.188942
0.193837
0.195985
0.196046
0.19414
0.190781
0.186427
0.181464
0.176206
0.170891
0.165696
0.160763
0.156195
0.152067
0.148435
0.145355
0.142886
0.14102
0.131016
0.137605
0.145805
0.156681
0.168775
0.180112
0.189255
0.195647
0.199313
0.200716
0.20032
0.198496
0.195661
0.19212
0.188119
0.183857
0.179488
0.175133
0.170896
0.166847
0.163061
0.159629
0.156625
0.154089
0.12811
0.134351
0.142328
0.153391
0.166109
0.178284
0.188291
0.195474
0.199908
0.202054
0.202455
0.201546
0.199717
0.197228
0.194335
0.191224
0.188026
0.184792
0.181545
0.178329
0.175194
0.172204
0.169358
0.166544
0.124964
0.130747
0.138259
0.149091
0.161791
0.17379
0.183328
0.190049
0.194394
0.19682
0.197725
0.197508
0.196608
0.195054
0.192994
0.190656
0.188123
0.185474
0.182756
0.179999
0.17724
0.174539
0.171897
0.168907
0.121521
0.126717
0.133483
0.143579
0.155316
0.165325
0.171896
0.175546
0.177275
0.177845
0.177664
0.177058
0.17622
0.175138
0.173813
0.172298
0.170673
0.168929
0.167058
0.165054
0.162923
0.160685
0.158525
0.155483
0.117786
0.122342
0.128264
0.137414
0.147497
0.153498
0.154247
0.151657
0.148249
0.145053
0.142338
0.140045
0.138064
0.136304
0.134691
0.133157
0.131631
0.130039
0.128329
0.126446
0.124407
0.121998
0.119943
0.116354
0.113825
0.117872
0.123335
0.132591
0.140444
0.141554
0.134765
0.124933
0.116334
0.10957
0.10422
0.0997559
0.0959153
0.0925563
0.0895676
0.0868419
0.0842829
0.0817973
0.0793145
0.0767374
0.0741463
0.0711558
0.0688042
0.0646886
0.109758
0.11368
0.119834
0.130891
0.137348
0.133104
0.118694
0.105128
0.0961088
0.089757
0.084116
0.0786529
0.0733713
0.0684217
0.0638922
0.0598034
0.0561559
0.0529196
0.0500385
0.0474528
0.0451605
0.0430344
0.041433
0.0396021
0.105734
0.11017
0.118744
0.132901
0.136523
0.126962
0.107308
0.0947572
0.0871662
0.08117
0.075368
0.0694403
0.0635889
0.0580688
0.0530577
0.0486482
0.0448358
0.0415671
0.0387909
0.0364749
0.0346103
0.0331464
0.032205
0.0316112
0.101911
0.10783
0.121099
0.138335
0.136458
0.118457
0.0994272
0.0895416
0.0830354
0.0771653
0.0710088
0.0646796
0.0585509
0.0528884
0.0478343
0.0434276
0.0396562
0.0364856
0.0338672
0.0317792
0.0302358
0.0292965
0.0289612
0.0291899
0.0984524
0.107306
0.127827
0.142665
0.134353
0.109604
0.0943357
0.0867517
0.0806322
0.0741852
0.0672624
0.0603478
0.053937
0.0482622
0.04338
0.0392585
0.0358351
0.0330497
0.0308483
0.0292007
0.028109
0.0276304
0.0278351
0.0286724
0.0955639
0.10936
0.137935
0.143879
0.126636
0.102425
0.0922594
0.0855874
0.0785086
0.0709007
0.0631157
0.055824
0.0493831
0.0438783
0.0392733
0.03549
0.0324473
0.0300792
0.0283452
0.0272333
0.026764
0.0268767
0.027517
0.0288337
0.0936053
0.115112
0.1452
0.141502
0.115822
0.0996527
0.0917263
0.0841103
0.0757894
0.0671335
0.0589211
0.0516638
0.0454863
0.0403424
0.0361309
0.0327471
0.0301051
0.0281469
0.0268444
0.026188
0.0261691
0.0266166
0.0276622
0.0292481
0.092844
0.124601
0.146952
0.133592
0.109572
0.0989435
0.0909166
0.0818529
0.072214
0.0629889
0.0548363
0.0479016
0.0421366
0.0374225
0.0336298
0.0306466
0.0283908
0.0268109
0.0258803
0.0255852
0.0258029
0.0265433
0.0278626
0.0294924
0.0934584
0.134359
0.142784
0.122791
0.108109
0.0990111
0.0891965
0.0784629
0.0680558
0.0588412
0.0510081
0.0445081
0.0392009
0.0349258
0.0315376
0.0289221
0.0270004
0.0257251
0.0250702
0.0250161
0.0254124
0.0263658
0.0277892
0.0294308
0.0955666
0.138121
0.134129
0.118763
0.108275
0.097969
0.0860914
0.0742856
0.0637727
0.0548521
0.0474734
0.0414599
0.0366125
0.0327491
0.029721
0.0274171
0.0257635
0.0247152
0.0242465
0.0243146
0.02483
0.0258648
0.0272902
0.0288744
0.0987097
0.137927
0.128401
0.118431
0.10862
0.0956135
0.0820167
0.0698186
0.0595169
0.0510558
0.0441964
0.038678
0.0342686
0.0307772
0.0280567
0.0260017
0.0245437
0.0236427
0.0232754
0.0233942
0.0239493
0.0249653
0.0263366
0.0278394
0.097946
0.134041
0.126836
0.121
0.107828
0.0917636
0.0772774
0.0651962
0.0553848
0.0474887
0.0411618
0.0361102
0.032094
0.028924
0.0264576
0.0245945
0.0232702
0.0224483
0.0221094
0.022218
0.0227322
0.023668
0.0249419
0.0263515
0.0932968
0.132097
0.130023
0.122426
0.104585
0.0867537
0.0722169
0.0606504
0.0514579
0.044145
0.0383271
0.0337016
0.0300315
0.0271338
0.0248721
0.0231508
0.0219086
0.0211113
0.0207429
0.0207866
0.0211962
0.0220006
0.023143
0.0244528
0.104835
0.136116
0.137057
0.122811
0.0992465
0.0810397
0.0670962
0.0562555
0.0477333
0.0409958
0.0356545
0.0314137
0.028046
0.0253778
0.0232802
0.0216614
0.0204619
0.0196481
0.019206
0.019131
0.01939
0.0200096
0.0209861
0.0221887
0.126162
0.14968
0.141159
0.115623
0.0922444
0.0750423
0.0620698
0.0520552
0.0442143
0.0380281
0.0331252
0.0292271
0.0261214
0.0236464
0.0216807
0.0201361
0.0189529
0.0180954
0.017548
0.0173082
0.0173725
0.01775
0.0185085
0.0195858
0.147481
0.162951
0.141055
0.107613
0.0850413
0.0691152
0.0572293
0.0480719
0.0409
0.0352329
0.0307296
0.0271358
0.0242574
0.0219459
0.0200878
0.0185986
0.0174171
0.0165027
0.0158334
0.0154017
0.0152111
0.0152876
0.0157306
0.0166347
)
;

boundaryField
{
    rotor
    {
        type            kqRWallFunction;
        value           nonuniform List<scalar> 
144
(
0.00571283
0.0228839
0.0540163
0.0867886
0.127229
0.143119
0.00571283
0.0196037
0.0236219
0.0254251
0.0283493
0.0305381
0.0321517
0.0332556
0.0339229
0.0342237
0.0342219
0.0339793
0.0334949
0.0327166
0.0316259
0.0301968
0.0284176
0.0263576
0.0248978
0.023845
0.0224201
0.0204232
0.0165748
0.00435562
0.00435562
0.00690235
0.0147333
0.037168
0.0623175
0.0726501
0.00552202
0.0195161
0.0482732
0.066672
0.0760699
0.0799762
0.00552202
0.0190866
0.0249286
0.0287692
0.0344673
0.0392818
0.0431343
0.0461231
0.0483579
0.0499338
0.0509261
0.0513889
0.0514095
0.0512454
0.05081
0.05002
0.0487834
0.0469859
0.0444726
0.0410241
0.0363784
0.0302721
0.0219495
0.0067852
0.0067852
0.0169657
0.0384454
0.0639258
0.0944177
0.121187
0.00513329
0.0156654
0.0309994
0.0430994
0.0476418
0.0557713
0.00513329
0.0183449
0.0257508
0.0313228
0.0359181
0.0396916
0.0427727
0.0452634
0.047245
0.0487886
0.0499675
0.0507443
0.050927
0.050604
0.0496694
0.048114
0.0459148
0.0430343
0.039405
0.0348396
0.0288077
0.0249241
0.0193706
0.00469713
0.00469713
0.0166832
0.0353853
0.061256
0.0894956
0.116301
0.00384889
0.0117777
0.0392145
0.068611
0.0933145
0.11584
0.00384889
0.0153138
0.0201649
0.0227626
0.0245056
0.0255749
0.0271962
0.0284483