/*--------------------------------*- C++ -*----------------------------------*\
  =========                 |
  \\      /  F ield         | OpenFOAM: The Open Source CFD Toolbox
   \\    /   O peration     | Website:  https://openfoam.org
    \\  /    A nd           | Version:  11
     \\/     M anipulation  |
\*---------------------------------------------------------------------------*/
FoamFile
{
    format      ascii;
    class       surfaceScalarField;
    location    "0.74";
    object      meshPhi;
}
// * * * * * * * * * * * * * * * * * * * * * * * * * * * * * * * * * * * * * //

dimensions      [0 3 -1 0 0 0 0];

internalField   nonuniform List<scalar> 
5640
(
1.36958e-16
9.81747e-07
2.42145e-16
1.37445e-06
3.76982e-16
1.76715e-06
-1.33918e-15
2.15984e-06
-3.68139e-15
2.55254e-06
2.94524e-06
5.95139e-15
1.82901e-18
9.81747e-07
-3.88784e-16
1.37445e-06
-2.60417e-15
1.76715e-06
1.94369e-15
2.15984e-06
8.06613e-15
2.55254e-06
2.94524e-06
-9.02984e-15
-1.16443e-16
9.81747e-07
1.86458e-16
1.37445e-06
-1.56232e-15
1.76715e-06
-4.21252e-15
2.15984e-06
-7.49845e-15
2.55254e-06
2.94524e-06
7.72343e-16
8.69875e-17
9.81747e-07
-1.01836e-16
1.37445e-06
2.69325e-15
1.76715e-06
7.44282e-15
2.15984e-06
3.25992e-15
2.55254e-06
2.94524e-06
-2.79776e-15
-4.83552e-17
9.81747e-07
3.95782e-17
1.37445e-06
1.94313e-16
1.76715e-06
-1.8061e-15
2.15984e-06
-4.20846e-15
2.55254e-06
2.94524e-06
5.01337e-15
-1.80088e-16
9.81747e-07
4.32751e-18
1.37445e-06
-1.8477e-15
1.76715e-06
-3.88611e-15
2.15984e-06
3.15728e-15
2.55254e-06
2.94524e-06
4.9825e-16
2.53978e-16
9.81747e-07
2.55459e-16
1.37445e-06
2.06605e-15
1.76715e-06
4.50417e-15
2.15984e-06
-2.30979e-15
2.55254e-06
2.94524e-06
5.41069e-16
2.16473e-17
9.81747e-07
-3.21661e-16
1.37445e-06
-1.14888e-15
1.76715e-06
-5.28552e-15
2.15984e-06
-3.76491e-16
2.55254e-06
2.94524e-06
-5.63968e-15
-1.43389e-16
9.81747e-07
1.66443e-16
1.37445e-06
4.19115e-15
1.76715e-06
6.34949e-15
2.15984e-06
-8.05463e-16
2.55254e-06
2.94524e-06
8.39425e-16
-6.87795e-17
9.81747e-07
-9.2044e-17
1.37445e-06
-2.76936e-15
1.76715e-06
-3.68713e-16
2.15984e-06
-1.45077e-15
2.55254e-06
2.94524e-06
-1.7651e-16
1.66338e-16
9.81747e-07
-8.86564e-17
1.37445e-06
5.69774e-16
1.76715e-06
-2.10347e-15
2.15984e-06
9.65999e-15
2.55254e-06
2.94524e-06
5.29031e-15
-1.77783e-16
9.81747e-07
-2.04968e-17
1.37445e-06
-3.45423e-16
1.76715e-06
-4.17253e-15
2.15984e-06
-2.6224e-15
2.55254e-06
2.94524e-06
5.36947e-15
1.77801e-16
9.81747e-07
2.0531e-17
1.37445e-06
3.45489e-16
1.76715e-06
4.17268e-15
2.15984e-06
2.62236e-15
2.55254e-06
2.94524e-06
-5.36918e-15
-1.66323e-16
9.81747e-07
8.87235e-17
1.37445e-06
-5.69642e-16
1.76715e-06
2.10357e-15
2.15984e-06
-9.65995e-15
2.55254e-06
2.94524e-06
-5.29006e-15
6.88021e-17
9.81747e-07
9.20863e-17
1.37445e-06
2.76937e-15
1.76715e-06
3.68818e-16
2.15984e-06
1.45093e-15
2.55254e-06
2.94524e-06
1.76856e-16
1.43413e-16
9.81747e-07
-1.6635e-16
1.37445e-06
-4.19109e-15
1.76715e-06
-6.34932e-15
2.15984e-06
8.05745e-16
2.55254e-06
2.94524e-06
-8.39256e-16
-2.16312e-17
9.81747e-07
3.21687e-16
1.37445e-06
1.14894e-15
1.76715e-06
5.28567e-15
2.15984e-06
3.76887e-16
2.55254e-06
2.94524e-06
5.63987e-15
-2.53964e-16
9.81747e-07
-2.55391e-16
1.37445e-06
-2.06597e-15
1.76715e-06
-4.50405e-15
2.15984e-06
2.31014e-15
2.55254e-06
2.94524e-06
-5.40823e-16
1.80124e-16
9.81747e-07
-4.26201e-18
1.37445e-06
1.84778e-15
1.76715e-06
3.88622e-15
2.15984e-06
-3.15688e-15
2.55254e-06
2.94524e-06
-4.97951e-16
4.83786e-17
9.81747e-07
-3.94797e-17
1.37445e-06
-1.94288e-16
1.76715e-06
1.80625e-15
2.15984e-06
4.20844e-15
2.55254e-06
2.94524e-06
-5.01324e-15
-8.69261e-17
9.81747e-07
1.01943e-16
1.37445e-06
-2.69317e-15
1.76715e-06
-7.44271e-15
2.15984e-06
-3.25979e-15
2.55254e-06
2.94524e-06
2.798e-15
1.16474e-16
9.81747e-07
-1.86361e-16
1.37445e-06
1.56233e-15
1.76715e-06
4.2126e-15
2.15984e-06
7.49861e-15
2.55254e-06
2.94524e-06
-7.72378e-16
-1.80501e-18
9.81747e-07
3.88814e-16
1.37445e-06
2.60418e-15
1.76715e-06
-1.94358e-15
2.15984e-06
-8.06614e-15
2.55254e-06
2.94524e-06
9.02995e-15
-1.36918e-16
-2.42086e-16
-3.77043e-16
1.33935e-15
3.68155e-15
-5.95118e-15
-1.1336e-14
4.53785e-06
-4.53785e-06
-4.81251e-16
5.23599e-06
-5.23599e-06
-5.35682e-15
5.93412e-06
-5.93412e-06
-1.13029e-14
6.63225e-06
-6.63225e-06
4.86884e-15
7.33038e-06
-7.33038e-06
-1.10908e-15
8.02851e-06
-8.02851e-06
-8.15779e-15
8.72664e-06
-8.72664e-06
1.30458e-14
9.42478e-06
-9.42478e-06
5.94893e-15
1.01229e-05
-1.01229e-05
-1.99568e-15
1.0821e-05
-1.0821e-05
2.43871e-14
1.15192e-05
-1.15192e-05
1.61908e-14
1.22173e-05
-1.22173e-05
-3.2785e-14
1.29154e-05
-1.29154e-05
-3.05036e-15
1.36136e-05
-1.36136e-05
-1.44398e-14
1.43117e-05
-1.43117e-05
-2.69019e-14
1.50098e-05
-1.50098e-05
7.74128e-15
1.5708e-05
-1.5708e-05
-4.43633e-15
1.64061e-05
-1.64061e-05
-1.79986e-14
1.71042e-05
-1.71042e-05
2.18243e-14
1.78024e-05
-1.78024e-05
8.21332e-15
1.85005e-05
-1.85005e-05
-6.07535e-15
1.91986e-05
-1.91986e-05
3.89241e-14
1.98967e-05
-1.98967e-05
2.05949e-05
-2.05949e-05
9.3991e-15
4.53785e-06
5.20335e-16
5.23599e-06
7.5284e-15
5.93412e-06
-4.412e-15
6.63225e-06
3.783e-15
7.33038e-06
1.33855e-14
8.02851e-06
-2.10849e-15
8.72664e-06
8.52956e-15
9.42478e-06
-1.00267e-14
1.01229e-05
1.86621e-15
1.0821e-05
-2.02028e-14
1.15192e-05
-7.01218e-15
1.22173e-05
7.51176e-15
1.29154e-05
2.36112e-14
1.36136e-05
-2.04102e-15
1.43117e-05
1.48354e-14
1.50098e-05
-1.38786e-14
1.5708e-05
2.39547e-15
1.64061e-05
2.04104e-14
1.71042e-05
-7.01126e-15
1.78024e-05
1.20686e-14
1.85005e-05
-2.5937e-14
1.91986e-05
1.8527e-15
1.98967e-05
2.05949e-05
-8.67592e-15
4.53785e-06
1.22925e-14
5.23599e-06
1.8833e-15
5.93412e-06
8.90222e-15
6.63225e-06
-5.10898e-15
7.33038e-06
-2.19902e-14
8.02851e-06
1.22654e-14
8.72664e-06
-5.37345e-15
9.42478e-06
4.4572e-15
1.01229e-05
-1.43052e-14
1.0821e-05
-7.32678e-15
1.15192e-05
7.04019e-15
1.22173e-05
2.39956e-14
1.29154e-05
-7.55383e-15
1.36136e-05
9.80018e-15
1.43117e-05
-1.62362e-14
1.50098e-05
4.02959e-14
1.5708e-05
1.44502e-14
1.64061e-05
-1.37067e-14
1.71042e-05
-7.89553e-15
1.78024e-05
-3.92466e-14
1.85005e-05
4.27529e-14
1.91986e-05
-8.84462e-15
1.98967e-05
2.05949e-05
5.98603e-15
4.53785e-06
2.19195e-16
5.23599e-06
-6.43551e-15
5.93412e-06
6.06406e-15
6.63225e-06
-2.09157e-15
7.33038e-06
1.6177e-14
8.02851e-06
-1.8831e-14
8.72664e-06
-2.35015e-15
9.42478e-06
9.17234e-15
1.01229e-05
-4.70968e-15
1.0821e-05
2.16286e-14
1.15192e-05
-2.96456e-14
1.22173e-05
-9.28964e-15
1.29154e-05
-1.89063e-14
1.36136e-05
4.46969e-15
1.43117e-05
3.01552e-14
1.50098e-05
-2.62145e-14
1.5708e-05
4.37882e-16
1.64061e-05
-2.11683e-14
1.71042e-05
1.87157e-14
1.78024e-05
-3.92015e-15
1.85005e-05
-2.91543e-14
1.91986e-05
1.52363e-14
1.98967e-05
2.05949e-05
6.71495e-15
4.53785e-06
-7.30681e-15
5.23599e-06
1.11008e-14
5.93412e-06
-4.23994e-15
6.63225e-06
1.51029e-14
7.33038e-06
-5.20829e-15
8.02851e-06
1.70134e-14
8.72664e-06
-3.94069e-15
9.42478e-06
-2.93591e-16
1.01229e-05
6.61105e-15
1.0821e-05
1.3706e-14
1.15192e-05
1.01859e-14
1.22173e-05
1.82188e-14
1.29154e-05
1.43706e-14
1.36136e-05
2.33422e-14
1.43117e-05
-2.53445e-14
1.50098e-05
2.90755e-14
1.5708e-05
-7.82288e-15
1.64061e-05
3.54168e-14
1.71042e-05
-4.51202e-15
1.78024e-05
4.23708e-14
1.85005e-05
-5.84022e-16
1.91986e-05
-8.72362e-15
1.98967e-05
2.05949e-05
-4.6305e-15
4.53785e-06
5.79763e-15
5.23599e-06
-1.615e-14
5.93412e-06
-5.97362e-15
6.63225e-06
-8.55467e-15
7.33038e-06
4.2245e-15
8.02851e-06
-8.18715e-15
8.72664e-06
7.00063e-15
9.42478e-06
-2.4229e-14
1.01229e-05
-7.76949e-15
1.0821e-05
-2.27631e-14
1.15192e-05
8.34953e-15
1.22173e-05
-7.40278e-15
1.29154e-05
2.82679e-14
1.36136e-05
-4.57086e-14
1.43117e-05
-8.22084e-15
1.50098e-05
-2.82247e-14
1.5708e-05
-2.33715e-15
1.64061e-05
-6.94172e-15
1.71042e-05
2.21509e-14
1.78024e-05
-3.41078e-14
1.85005e-05
-3.73608e-15
1.91986e-05
-3.23425e-14
1.98967e-05
2.05949e-05
-8.92506e-15
4.53785e-06
-2.28862e-15
5.23599e-06
-2.22377e-15
5.93412e-06
6.61687e-15
6.63225e-06
-3.38801e-15
7.33038e-06
-3.90654e-15
8.02851e-06
-6.41855e-15
8.72664e-06
-7.15792e-15
9.42478e-06
6.81059e-15
1.01229e-05
6.98245e-15
1.0821e-05
-9.06454e-15
1.15192e-05
6.75975e-15
1.22173e-05
-2.88874e-14
1.29154e-05
-1.2232e-14
1.36136e-05
4.80816e-15
1.43117e-05
2.50263e-14
1.50098e-05
3.86309e-15
1.5708e-05
3.61097e-15
1.64061e-05
-2.04789e-14
1.71042e-05
-2.17574e-14
1.78024e-05
3.46709e-15
1.85005e-05
2.90468e-14
1.91986e-05
-1.65769e-15
1.98967e-05
2.05949e-05
6.21579e-15
4.53785e-06
-3.87882e-15
5.23599e-06
1.54225e-14
5.93412e-06
-7.06456e-15
6.63225e-06
-2.20991e-15
7.33038e-06
1.43e-15
8.02851e-06
-5.49314e-15
8.72664e-06
1.3226e-14
9.42478e-06
6.04516e-15
1.01229e-05
-1.74501e-14
1.0821e-05
2.0889e-14
1.15192e-05
-2.14447e-14
1.22173e-05
1.91357e-14
1.29154e-05
-7.31402e-15
1.36136e-05
3.84901e-14
1.43117e-05
-1.29201e-14
1.50098e-05
-1.87858e-15
1.5708e-05
5.71998e-15
1.64061e-05
-7.58245e-15
1.71042e-05
2.76603e-14
1.78024e-05
1.41017e-14
1.85005e-05
-5.31381e-14
1.91986e-05
3.90861e-14
1.98967e-05
2.05949e-05
-1.49855e-15
4.53785e-06
1.08972e-14
5.23599e-06
-6.59916e-15
5.93412e-06
7.26555e-15
6.63225e-06
6.17532e-15
7.33038e-06
2.48911e-15
8.02851e-06
-9.64392e-16
8.72664e-06
-4.36514e-15
9.42478e-06
-8.899e-15
1.01229e-05
1.38636e-14
1.0821e-05
1.06912e-14
1.15192e-05
6.25069e-15
1.22173e-05
-1.27678e-16
1.29154e-05
-3.43642e-15
1.36136e-05
-1.10406e-14
1.43117e-05
-1.77633e-14
1.50098e-05
1.7682e-14
1.5708e-05
9.95643e-15
1.64061e-05
3.32998e-15
1.71042e-05
-3.29643e-14
1.78024e-05
-1.04213e-14
1.85005e-05
3.0072e-14
1.91986e-05
-5.99937e-14
1.98967e-05
2.05949e-05
5.17026e-15
4.53785e-06
-7.45557e-15
5.23599e-06
-7.56662e-16
5.93412e-06
6.83974e-15
6.63225e-06
-9.97395e-15
7.33038e-06
-1.66418e-15
8.02851e-06
9.21884e-15
8.72664e-06
-1.34585e-14
9.42478e-06
2.3223e-14
1.01229e-05
1.04728e-14
1.0821e-05
-1.72725e-14
1.15192e-05
-3.02665e-15
1.22173e-05
1.13981e-14
1.29154e-05
-1.98149e-14
1.36136e-05
-4.67568e-15
1.43117e-05
5.03068e-14
1.50098e-05
-2.40469e-14
1.5708e-05
-6.65672e-15
1.64061e-05
1.42607e-14
1.71042e-05
1.6575e-15
1.78024e-05
-6.80827e-15
1.85005e-05
1.44443e-14
1.91986e-05
5.07623e-14
1.98967e-05
2.05949e-05
-6.19713e-15
4.53785e-06
2.83226e-17
5.23599e-06
1.15118e-14
5.93412e-06
-2.06253e-14
6.63225e-06
5.3668e-15
7.33038e-06
1.22194e-15
8.02851e-06
-4.62891e-17
8.72664e-06
1.23938e-14
9.42478e-06
-1.3225e-14
1.01229e-05
-1.88931e-14
1.0821e-05
-4.96323e-15
1.15192e-05
-7.1521e-15
1.22173e-05
-1.4886e-14
1.29154e-05
3.53415e-14
1.36136e-05
1.19671e-18
1.43117e-05
-4.3136e-14
1.50098e-05
1.35621e-14
1.5708e-05
-2.82568e-14
1.64061e-05
2.45304e-15
1.71042e-05
-1.02378e-14
1.78024e-05
2.38055e-14
1.85005e-05
1.38753e-14
1.91986e-05
-4.55611e-14
1.98967e-05
2.05949e-05
-1.90648e-15
4.53785e-06
1.13091e-15
5.23599e-06
-2.16616e-14
5.93412e-06
9.62404e-15
6.63225e-06
1.51375e-14
7.33038e-06
-1.40646e-14
8.02851e-06
8.09343e-15
8.72664e-06
-2.69595e-14
9.42478e-06
-1.96546e-15
1.01229e-05
2.97189e-14
1.0821e-05
-1.17445e-14
1.15192e-05
1.98682e-14
1.22173e-05
-2.74441e-14
1.29154e-05
-2.06143e-14
1.36136e-05
1.60402e-14
1.43117e-05
-4.6136e-15
1.50098e-05
4.69326e-15
1.5708e-05
4.79705e-14
1.64061e-05
-1.37364e-14
1.71042e-05
3.23737e-14
1.78024e-05
-3.51798e-14
1.85005e-05
-2.49031e-14
1.91986e-05
7.19153e-14
1.98967e-05
2.05949e-05
1.90678e-15
4.53785e-06
-1.13026e-15
5.23599e-06
2.16624e-14
5.93412e-06
-9.62366e-15
6.63225e-06
-1.51367e-14
7.33038e-06
1.4066e-14
8.02851e-06
-8.09266e-15
8.72664e-06
2.69612e-14
9.42478e-06
1.96613e-15
1.01229e-05
-2.97158e-14
1.0821e-05
1.17456e-14
1.15192e-05
-1.98652e-14
1.22173e-05
2.74448e-14
1.29154e-05
2.06171e-14
1.36136e-05
-1.60397e-14
1.43117e-05
4.61372e-15
1.50098e-05
-4.68881e-15
1.5708e-05
-4.79665e-14
1.64061e-05
1.37416e-14
1.71042e-05
-3.23706e-14
1.78024e-05
3.5187e-14
1.85005e-05
2.49107e-14
1.91986e-05
-7.19146e-14
1.98967e-05
2.05949e-05
6.19757e-15
4.53785e-06
-2.82276e-17
5.23599e-06
-1.15117e-14
5.93412e-06
2.06263e-14
6.63225e-06
-5.36691e-15
7.33038e-06
-1.22129e-15
8.02851e-06
4.77151e-17
8.72664e-06
-1.23916e-14
9.42478e-06
1.32279e-14
1.01229e-05
1.88958e-14
1.0821e-05
4.96404e-15
1.15192e-05
7.15372e-15
1.22173e-05
1.48877e-14
1.29154e-05
-3.53374e-14
1.36136e-05
3.49733e-18
1.43117e-05
4.31393e-14
1.50098e-05
-1.35615e-14
1.5708e-05
2.82575e-14
1.64061e-05
-2.45173e-15
1.71042e-05
1.02421e-14
1.78024e-05
-2.38047e-14
1.85005e-05
-1.38695e-14
1.91986e-05
4.55656e-14
1.98967e-05
2.05949e-05
-5.17004e-15
4.53785e-06
7.45591e-15
5.23599e-06
7.56735e-16
5.93412e-06
-6.83909e-15
6.63225e-06
9.97428e-15
7.33038e-06
1.6647e-15
8.02851e-06
-9.21928e-15
8.72664e-06
1.34603e-14
9.42478e-06
-2.32206e-14
1.01229e-05
-1.04713e-14
1.0821e-05
1.72725e-14
1.15192e-05
3.02694e-15
1.22173e-05
-1.13962e-14
1.29154e-05
1.98178e-14
1.36136e-05
4.67935e-15
1.43117e-05
-5.03054e-14
1.50098e-05
2.40467e-14
1.5708e-05
6.6588e-15
1.64061e-05
-1.42615e-14
1.71042e-05
-1.65065e-15
1.78024e-05
6.80893e-15
1.85005e-05
-1.44395e-14
1.91986e-05
-5.07568e-14
1.98967e-05
2.05949e-05
1.49855e-15
4.53785e-06
-1.08967e-14
5.23599e-06
6.59943e-15
5.93412e-06
-7.26536e-15
6.63225e-06
-6.17507e-15
7.33038e-06
-2.48851e-15
8.02851e-06
9.6455e-16
8.72664e-06
4.3653e-15
9.42478e-06
8.90147e-15
1.01229e-05
-1.38618e-14
1.0821e-05
-1.06895e-14
1.15192e-05
-6.25087e-15
1.22173e-05
1.27733e-16
1.29154e-05
3.43835e-15
1.36136e-05
1.10456e-14
1.43117e-05
1.77644e-14
1.50098e-05
-1.76797e-14
1.5708e-05
-9.95403e-15
1.64061e-05
-3.3286e-15
1.71042e-05
3.29672e-14
1.78024e-05
1.04214e-14
1.85005e-05
-3.00656e-14
1.91986e-05
5.9993e-14
1.98967e-05
2.05949e-05
-6.2157e-15
4.53785e-06
3.87936e-15
5.23599e-06
-1.54219e-14
5.93412e-06
7.06492e-15
6.63225e-06
2.21059e-15
7.33038e-06
-1.42937e-15
8.02851e-06
5.49281e-15
8.72664e-06
-1.3226e-14
9.42478e-06
-6.04393e-15
1.01229e-05
1.74517e-14
1.0821e-05
-2.08876e-14
1.15192e-05
2.14469e-14
1.22173e-05
-1.91333e-14
1.29154e-05
7.31624e-15
1.36136e-05
-3.84847e-14
1.43117e-05
1.29237e-14
1.50098e-05
1.88461e-15
1.5708e-05
-5.71747e-15
1.64061e-05
7.58872e-15
1.71042e-05
-2.76593e-14
1.78024e-05
-1.4098e-14
1.85005e-05
5.31412e-14
1.91986e-05
-3.90827e-14
1.98967e-05
2.05949e-05
8.92522e-15
4.53785e-06
2.28903e-15
5.23599e-06
2.22452e-15
5.93412e-06
-6.6166e-15
6.63225e-06
3.3883e-15
7.33038e-06
3.90769e-15
8.02851e-06
6.41859e-15
8.72664e-06
7.15811e-15
9.42478e-06
-6.80794e-15
1.01229e-05
-6.98239e-15
1.0821e-05
9.06553e-15
1.15192e-05
-6.75821e-15
1.22173e-05
2.88891e-14
1.29154e-05
1.22341e-14
1.36136e-05
-4.80197e-15
1.43117e-05
-2.50271e-14
1.50098e-05
-3.86279e-15
1.5708e-05
-3.60532e-15
1.64061e-05
2.04829e-14
1.71042e-05
2.17645e-14
1.78024e-05
-3.46421e-15
1.85005e-05
-2.90443e-14
1.91986e-05
1.6657e-15
1.98967e-05
2.05949e-05
4.63064e-15
4.53785e-06
-5.79727e-15
5.23599e-06
1.61506e-14
5.93412e-06
5.97497e-15
6.63225e-06
8.55546e-15
7.33038e-06
-4.22328e-15
8.02851e-06
8.18782e-15
8.72664e-06
-6.9998e-15
9.42478e-06
2.42309e-14
1.01229e-05
7.76943e-15
1.0821e-05
2.27652e-14
1.15192e-05
-8.34888e-15
1.22173e-05
7.40512e-15
1.29154e-05
-2.82662e-14
1.36136e-05
4.57104e-14
1.43117e-05
8.22103e-15
1.50098e-05
2.82243e-14
1.5708e-05
2.34197e-15
1.64061e-05
6.93998e-15
1.71042e-05
-2.21487e-14
1.78024e-05
3.41115e-14
1.85005e-05
3.74295e-15
1.91986e-05
3.23461e-14
1.98967e-05
2.05949e-05
-6.71468e-15
4.53785e-06
7.30695e-15
5.23599e-06
-1.1101e-14
5.93412e-06
4.24119e-15
6.63225e-06
-1.51013e-14
7.33038e-06
5.2093e-15
8.02851e-06
-1.70128e-14
8.72664e-06
3.9411e-15
9.42478e-06
2.94994e-16
1.01229e-05
-6.61016e-15
1.0821e-05
-1.37045e-14
1.15192e-05
-1.01838e-14
1.22173e-05
-1.82172e-14
1.29154e-05
-1.43657e-14
1.36136e-05
-2.33409e-14
1.43117e-05
2.53444e-14
1.50098e-05
-2.90744e-14
1.5708e-05
7.82808e-15
1.64061e-05
-3.54215e-14
1.71042e-05
4.51031e-15
1.78024e-05
-4.2369e-14
1.85005e-05
5.87155e-16
1.91986e-05
8.73803e-15
1.98967e-05
2.05949e-05
-5.98583e-15
4.53785e-06
-2.19052e-16
5.23599e-06
6.4355e-15
5.93412e-06
-6.06362e-15
6.63225e-06
2.09292e-15
7.33038e-06
-1.61765e-14
8.02851e-06
1.88314e-14
8.72664e-06
2.35193e-15
9.42478e-06
-9.17238e-15
1.01229e-05
4.7114e-15
1.0821e-05
-2.16274e-14
1.15192e-05
2.96456e-14
1.22173e-05
9.29052e-15
1.29154e-05
1.89065e-14
1.36136e-05
-4.4682e-15
1.43117e-05
-3.01575e-14
1.50098e-05
2.62192e-14
1.5708e-05
-4.36905e-16
1.64061e-05
2.11703e-14
1.71042e-05
-1.87129e-14
1.78024e-05
3.92003e-15
1.85005e-05
2.91602e-14
1.91986e-05
-1.52277e-14
1.98967e-05
2.05949e-05
8.67638e-15
4.53785e-06
-1.22922e-14
5.23599e-06
-1.88292e-15
5.93412e-06
-8.90244e-15
6.63225e-06
5.10913e-15
7.33038e-06
2.19911e-14
8.02851e-06
-1.22639e-14
8.72664e-06
5.37377e-15
9.42478e-06
-4.45617e-15
1.01229e-05
1.43053e-14
1.0821e-05
7.32594e-15
1.15192e-05
-7.0396e-15
1.22173e-05
-2.39946e-14
1.29154e-05
7.55612e-15
1.36136e-05
-9.80085e-15
1.43117e-05
1.62369e-14
1.50098e-05
-4.02917e-14
1.5708e-05
-1.44454e-14
1.64061e-05
1.37057e-14
1.71042e-05
7.89703e-15
1.78024e-05
3.92498e-14
1.85005e-05
-4.27493e-14
1.91986e-05
8.8533e-15
1.98967e-05
2.05949e-05
-9.39879e-15
4.53785e-06
-5.19966e-16
5.23599e-06
-7.52809e-15
5.93412e-06
4.41209e-15
6.63225e-06
-3.78302e-15
7.33038e-06
-1.33844e-14
8.02851e-06
2.10996e-15
8.72664e-06
-8.52923e-15
9.42478e-06
1.00267e-14
1.01229e-05
-1.86592e-15
1.0821e-05
2.02043e-14
1.15192e-05
7.01366e-15
1.22173e-05
-7.50997e-15
1.29154e-05
-2.36066e-14
1.36136e-05
2.04376e-15
1.43117e-05
-1.48333e-14
1.50098e-05
1.38808e-14
1.5708e-05
-2.39165e-15
1.64061e-05
-2.04072e-14
1.71042e-05
7.01454e-15
1.78024e-05
-1.20609e-14
1.85005e-05
2.59409e-14
1.91986e-05
-1.84666e-15
1.98967e-05
2.05949e-05
1.13361e-14
4.53785e-06
4.81341e-16
5.23599e-06
5.3574e-15
5.93412e-06
1.1304e-14
6.63225e-06
-4.86949e-15
7.33038e-06
1.11035e-15
8.02851e-06
8.15805e-15
8.72664e-06
-1.30445e-14
9.42478e-06
-5.94954e-15
1.01229e-05
1.99648e-15
1.0821e-05
-2.43862e-14
1.15192e-05
-1.61891e-14
1.22173e-05
3.27862e-14
1.29154e-05
3.05269e-15
1.36136e-05
1.44437e-14
1.43117e-05
2.69007e-14
1.50098e-05
-7.73784e-15
1.5708e-05
4.44141e-15
1.64061e-05
1.80031e-14
1.71042e-05
-2.18196e-14
1.78024e-05
-8.20943e-15
1.85005e-05
6.08406e-15
1.91986e-05
-3.89166e-14
1.98967e-05
2.05949e-05
1.36965e-16
9.81747e-07
2.42107e-16
1.37445e-06
3.76958e-16
1.76715e-06
-1.33921e-15
2.15984e-06
-3.68152e-15
2.55254e-06
2.94524e-06
5.95124e-15
1.82901e-18
9.81747e-07
-3.88784e-16
1.37445e-06
-2.60417e-15
1.76715e-06
1.94369e-15
2.15984e-06
8.06613e-15
2.55254e-06
2.94524e-06
-9.02984e-15
-1.16443e-16
9.81747e-07
1.86458e-16
1.37445e-06
-1.56232e-15
1.76715e-06
-4.21252e-15
2.15984e-06
-7.49845e-15
2.55254e-06
2.94524e-06
7.72343e-16
8.69875e-17
9.81747e-07
-1.01836e-16
1.37445e-06
2.69325e-15
1.76715e-06
7.44282e-15
2.15984e-06
3.25992e-15
2.55254e-06
2.94524e-06
-2.79776e-15
-4.83552e-17
9.81747e-07
3.95782e-17
1.37445e-06
1.94313e-16
1.76715e-06
-1.8061e-15
2.15984e-06
-4.20846e-15
2.55254e-06
2.94524e-06
5.01337e-15
-1.80088e-16
9.81747e-07
4.32751e-18
1.37445e-06
-1.8477e-15
1.76715e-06
-3.88611e-15
2.15984e-06
3.15728e-15
2.55254e-06
2.94524e-06
4.9825e-16
2.53978e-16
9.81747e-07
2.55459e-16
1.37445e-06
2.06605e-15
1.76715e-06
4.50417e-15
2.15984e-06
-2.30979e-15
2.55254e-06
2.94524e-06
5.41069e-16
2.16473e-17
9.81747e-07
-3.21661e-16
1.37445e-06
-1.14888e-15
1.76715e-06
-5.28552e-15
2.15984e-06
-3.76491e-16
2.55254e-06
2.94524e-06
-5.63968e-15
-1.43389e-16
9.81747e-07
1.66443e-16
1.37445e-06
4.19115e-15
1.76715e-06
6.34949e-15
2.15984e-06
-8.05463e-16
2.55254e-06
2.94524e-06
8.39425e-16
-6.87795e-17
9.81747e-07
-9.2044e-17
1.37445e-06
-2.76936e-15
1.76715e-06
-3.68713e-16
2.15984e-06
-1.45077e-15
2.55254e-06
2.94524e-06
-1.7651e-16
1.66338e-16
9.81747e-07
-8.86564e-17
1.37445e-06
5.69774e-16
1.76715e-06
-2.10347e-15
2.15984e-06
9.65999e-15
2.55254e-06
2.94524e-06
5.29031e-15
-1.77783e-16
9.81747e-07
-2.04968e-17
1.37445e-06
-3.45423e-16
1.76715e-06
-4.17253e-15
2.15984e-06
-2.6224e-15
2.55254e-06
2.94524e-06
5.36947e-15
1.77801e-16
9.81747e-07
2.0531e-17
1.37445e-06
3.45489e-16
1.76715e-06
4.17268e-15
2.15984e-06
2.62236e-15
2.55254e-06
2.94524e-06
-5.36918e-15
-1.66323e-16
9.81747e-07
8.87235e-17
1.37445e-06
-5.69642e-16
1.76715e-06
2.10357e-15
2.15984e-06
-9.65995e-15
2.55254e-06
2.94524e-06
-5.29006e-15
6.88021e-17
9.81747e-07
9.20863e-17
1.37445e-06
2.76937e-15
1.76715e-06
3.68818e-16
2.15984e-06
1.45093e-15
2.55254e-06
2.94524e-06
1.76856e-16
1.43413e-16
9.81747e-07
-1.6635e-16
1.37445e-06
-4.19109e-15
1.76715e-06
-6.34932e-15
2.15984e-06
8.05745e-16
2.55254e-06
2.94524e-06
-8.39256e-16
-2.16312e-17
9.81747e-07
3.21687e-16
1.37445e-06
1.14894e-15
1.76715e-06
5.28567e-15
2.15984e-06
3.76887e-16
2.55254e-06
2.94524e-06
5.63987e-15
-2.53964e-16
9.81747e-07
-2.55391e-16
1.37445e-06
-2.06597e-15
1.76715e-06
-4.50405e-15
2.15984e-06
2.31014e-15
2.55254e-06
2.94524e-06
-5.40823e-16
1.80124e-16
9.81747e-07
-4.26201e-18
1.37445e-06
1.84778e-15
1.76715e-06
3.88622e-15
2.15984e-06
-3.15688e-15
2.55254e-06
2.94524e-06
-4.97951e-16
4.83786e-17
9.81747e-07
-3.94797e-17
1.37445e-06
-1.94288e-16
1.76715e-06
1.80625e-15
2.15984e-06
4.20844e-15
2.55254e-06
2.94524e-06
-5.01324e-15
-8.69261e-17
9.81747e-07
1.01943e-16
1.37445e-06
-2.69317e-15
1.76715e-06
-7.44271e-15
2.15984e-06
-3.25979e-15
2.55254e-06
2.94524e-06
2.798e-15
1.16474e-16
9.81747e-07
-1.86361e-16
1.37445e-06
1.56233e-15
1.76715e-06
4.2126e-15
2.15984e-06
7.49861e-15
2.55254e-06
2.94524e-06
-7.72378e-16
-1.80501e-18
9.81747e-07
3.88814e-16
1.37445e-06
2.60418e-15
1.76715e-06
-1.94358e-15
2.15984e-06
-8.06614e-15
2.55254e-06
2.94524e-06
9.02995e-15
-1.36932e-16
-2.42086e-16
-3.76972e-16
1.33941e-15
3.68168e-15
-5.95111e-15
-1.13359e-14
4.53785e-06
-4.80847e-16
5.23599e-06
-5.35682e-15
5.93412e-06
-1.13026e-14
6.63225e-06
4.86857e-15
7.33038e-06
-1.10908e-15
8.02851e-06
-8.15811e-15
8.72664e-06
1.30458e-14
9.42478e-06
5.94931e-15
1.01229e-05
-1.99729e-15
1.0821e-05
2.43871e-14
1.15192e-05
1.61917e-14
1.22173e-05
-3.27869e-14
1.29154e-05
-3.05035e-15
1.36136e-05
-1.44398e-14
1.43117e-05
-2.69008e-14
1.50098e-05
7.74012e-15
1.5708e-05
-4.43633e-15
1.64061e-05
-1.79986e-14
1.71042e-05
2.18229e-14
1.78024e-05
8.21332e-15
1.85005e-05
-6.081e-15
1.91986e-05
3.89226e-14
1.98967e-05
2.05949e-05
9.3991e-15
4.53785e-06
5.20335e-16
5.23599e-06
7.5284e-15
5.93412e-06
-4.412e-15
6.63225e-06
3.783e-15
7.33038e-06
1.33855e-14
8.02851e-06
-2.10849e-15
8.72664e-06
8.52956e-15
9.42478e-06
-1.00267e-14
1.01229e-05
1.86621e-15
1.0821e-05
-2.02028e-14
1.15192e-05
-7.01218e-15
1.22173e-05
7.51176e-15
1.29154e-05
2.36112e-14
1.36136e-05
-2.04102e-15
1.43117e-05
1.48354e-14
1.50098e-05
-1.38786e-14
1.5708e-05
2.39547e-15
1.64061e-05
2.04104e-14
1.71042e-05
-7.01126e-15
1.78024e-05
1.20686e-14
1.85005e-05
-2.5937e-14
1.91986e-05
1.8527e-15
1.98967e-05
2.05949e-05
-8.67592e-15
4.53785e-06
1.22925e-14
5.23599e-06
1.8833e-15
5.93412e-06
8.90222e-15
6.63225e-06
-5.10898e-15
7.33038e-06
-2.19902e-14
8.02851e-06
1.22654e-14
8.72664e-06
-5.37345e-15
9.42478e-06
4.4572e-15
1.01229e-05
-1.43052e-14
1.0821e-05
-7.32678e-15
1.15192e-05
7.04019e-15
1.22173e-05
2.39956e-14
1.29154e-05
-7.55383e-15
1.36136e-05
9.80018e-15
1.43117e-05
-1.62362e-14
1.50098e-05
4.02959e-14
1.5708e-05
1.44502e-14
1.64061e-05
-1.37067e-14
1.71042e-05
-7.89553e-15
1.78024e-05
-3.92466e-14
1.85005e-05
4.27529e-14
1.91986e-05
-8.84462e-15
1.98967e-05
2.05949e-05
5.98603e-15
4.53785e-06
2.19195e-16
5.23599e-06
-6.43551e-15
5.93412e-06
6.06406e-15
6.63225e-06
-2.09157e-15
7.33038e-06
1.6177e-14
8.02851e-06
-1.8831e-14
8.72664e-06
-2.35015e-15
9.42478e-06
9.17234e-15
1.01229e-05
-4.70968e-15
1.0821e-05
2.16286e-14
1.15192e-05
-2.96456e-14
1.22173e-05
-9.28964e-15
1.29154e-05
-1.89063e-14
1.36136e-05
4.46969e-15
1.43117e-05
3.01552e-14
1.50098e-05
-2.62145e-14
1.5708e-05
4.37882e-16
1.64061e-05
-2.11683e-14
1.71042e-05
1.87157e-14
1.78024e-05
-3.92015e-15
1.85005e-05
-2.91543e-14
1.91986e-05
1.52363e-14
1.98967e-05
2.05949e-05
6.71495e-15
4.53785e-06
-7.30681e-15
5.23599e-06
1.11008e-14
5.93412e-06
-4.23994e-15
6.63225e-06
1.51029e-14
7.33038e-06
-5.20829e-15
8.02851e-06
1.70134e-14
8.72664e-06
-3.94069e-15
9.42478e-06
-2.93591e-16
1.01229e-05
6.61105e-15
1.0821e-05
1.3706e-14
1.15192e-05
1.01859e-14
1.22173e-05
1.82188e-14
1.29154e-05
1.43706e-14
1.36136e-05
2.33422e-14
1.43117e-05
-2.53445e-14
1.50098e-05
2.90755e-14
1.5708e-05
-7.82288e-15
1.64061e-05
3.54168e-14
1.71042e-05
-4.51202e-15
1.78024e-05
4.23708e-14
1.85005e-05
-5.84022e-16
1.91986e-05
-8.72362e-15
1.98967e-05
2.05949e-05
-4.6305e-15
4.53785e-06
5.79763e-15
5.23599e-06
-1.615e-14
5.93412e-06
-5.97362e-15
6.63225e-06
-8.55467e-15
7.33038e-06
4.2245e-15
8.02851e-06
-8.18715e-15
8.72664e-06
7.00063e-15
9.42478e-06
-2.4229e-14
1.01229e-05
-7.76949e-15
1.0821e-05
-2.27631e-14
1.15192e-05
8.34953e-15
1.22173e-05
-7.40278e-15
1.29154e-05
2.82679e-14
1.36136e-05
-4.57086e-14
1.43117e-05
-8.22084e-15
1.50098e-05
-2.82247e-14
1.5708e-05
-2.33715e-15
1.64061e-05
-6.94172e-15
1.71042e-05
2.21509e-14
1.78024e-05
-3.41078e-14
1.85005e-05
-3.73608e-15
1.91986e-05
-3.23425e-14
1.98967e-05
2.05949e-05
-8.92506e-15
4.53785e-06
-2.28862e-15
5.23599e-06
-2.22377e-15
5.93412e-06
6.61687e-15
6.63225e-06
-3.38801e-15
7.33038e-06
-3.90654e-15
8.02851e-06
-6.41855e-15
8.72664e-06
-7.15792e-15
9.42478e-06
6.81059e-15
1.01229e-05
6.98245e-15
1.0821e-05
-9.06454e-15
1.15192e-05
6.75975e-15
1.22173e-05
-2.88874e-14
1.29154e-05
-1.2232e-14
1.36136e-05
4.80816e-15
1.43117e-05
2.50263e-14
1.50098e-05
3.86309e-15
1.5708e-05
3.61097e-15
1.64061e-05
-2.04789e-14
1.71042e-05
-2.17574e-14
1.78024e-05
3.46709e-15
1.85005e-05
2.90468e-14
1.91986e-05
-1.65769e-15
1.98967e-05
2.05949e-05
6.21579e-15
4.53785e-06
-3.87882e-15
5.23599e-06
1.54225e-14
5.93412e-06
-7.06456e-15
6.63225e-06
-2.20991e-15
7.33038e-06
1.43e-15
8.02851e-06
-5.49314e-15
8.72664e-06
1.3226e-14
9.42478e-06
6.04516e-15
1.01229e-05
-1.74501e-14
1.0821e-05
2.0889e-14
1.15192e-05
-2.14447e-14
1.22173e-05
1.91357e-14
1.29154e-05
-7.31402e-15
1.36136e-05
3.84901e-14
1.43117e-05
-1.29201e-14
1.50098e-05
-1.87858e-15
1.5708e-05
5.71998e-15
1.64061e-05
-7.58245e-15
1.71042e-05
2.76603e-14
1.78024e-05
1.41017e-14
1.85005e-05
-5.31381e-14
1.91986e-05
3.90861e-14
1.98967e-05
2.05949e-05
-1.49855e-15
4.53785e-06
1.08972e-14
5.23599e-06
-6.59916e-15
5.93412e-06
7.26555e-15
6.63225e-06
6.17532e-15
7.33038e-06
2.48911e-15
8.02851e-06
-9.64392e-16
8.72664e-06
-4.36514e-15
9.42478e-06
-8.899e-15
1.01229e-05
1.38636e-14
1.0821e-05
1.06912e-14
1.15192e-05
6.25069e-15
1.22173e-05
-1.27678e-16
1.29154e-05
-3.43642e-15
1.36136e-05
-1.10406e-14
1.43117e-05
-1.77633e-14
1.50098e-05
1.7682e-14
1.5708e-05
9.95643e-15
1.64061e-05
3.32998e-15
1.71042e-05
-3.29643e-14
1.78024e-05
-1.04213e-14
1.85005e-05
3.0072e-14
1.91986e-05
-5.99937e-14
1.98967e-05
2.05949e-05
5.17026e-15
4.53785e-06
-7.45557e-15
5.23599e-06
-7.56662e-16
5.93412e-06
6.83974e-15
6.63225e-06
-9.97395e-15
7.33038e-06
-1.66418e-15
8.02851e-06
9.21884e-15
8.72664e-06
-1.34585e-14
9.42478e-06
2.3223e-14
1.01229e-05
1.04728e-14
1.0821e-05
-1.72725e-14
1.15192e-05
-3.02665e-15
1.22173e-05
1.13981e-14
1.29154e-05
-1.98149e-14
1.36136e-05
-4.67568e-15
1.43117e-05
5.03068e-14
1.50098e-05
-2.40469e-14
1.5708e-05
-6.65672e-15
1.64061e-05
1.42607e-14
1.71042e-05
1.6575e-15
1.78024e-05
-6.80827e-15
1.85005e-05
1.44443e-14
1.91986e-05
5.07623e-14
1.98967e-05
2.05949e-05
-6.19713e-15
4.53785e-06
2.83226e-17
5.23599e-06
1.15118e-14
5.93412e-06
-2.06253e-14
6.63225e-06
5.3668e-15
7.33038e-06
1.22194e-15
8.02851e-06
-4.62891e-17
8.72664e-06
1.23938e-14
9.42478e-06
-1.3225e-14
1.01229e-05
-1.88931e-14
1.0821e-05
-4.96323e-15
1.15192e-05
-7.1521e-15
1.22173e-05
-1.4886e-14
1.29154e-05
3.53415e-14
1.36136e-05
1.19671e-18
1.43117e-05
-4.3136e-14
1.50098e-05
1.35621e-14
1.5708e-05
-2.82568e-14
1.64061e-05
2.45304e-15
1.71042e-05
-1.02378e-14
1.78024e-05
2.38055e-14
1.85005e-05
1.38753e-14
1.91986e-05
-4.55611e-14
1.98967e-05
2.05949e-05
-1.90648e-15
4.53785e-06
1.13091e-15
5.23599e-06
-2.16616e-14
5.93412e-06
9.62404e-15
6.63225e-06
1.51375e-14
7.33038e-06
-1.40646e-14
8.02851e-06
8.09343e-15
8.72664e-06
-2.69595e-14
9.42478e-06
-1.96546e-15
1.01229e-05
2.97189e-14
1.0821e-05
-1.17445e-14
1.15192e-05
1.98682e-14
1.22173e-05
-2.74441e-14
1.29154e-05
-2.06143e-14
1.36136e-05
1.60402e-14
1.43117e-05
-4.6136e-15
1.50098e-05
4.69326e-15
1.5708e-05
4.79705e-14
1.64061e-05
-1.37364e-14
1.71042e-05
3.23737e-14
1.78024e-05
-3.51798e-14
1.85005e-05
-2.49031e-14
1.91986e-05
7.19153e-14
1.98967e-05
2.05949e-05
1.90678e-15
4.53785e-06
-1.13026e-15
5.23599e-06
2.16624e-14
5.93412e-06
-9.62366e-15
6.63225e-06
-1.51367e-14
7.33038e-06
1.4066e-14
8.02851e-06
-8.09266e-15
8.72664e-06
2.69612e-14
9.42478e-06
1.96613e-15
1.01229e-05
-2.97158e-14
1.0821e-05
1.17456e-14
1.15192e-05
-1.98652e-14
1.22173e-05
2.74448e-14
1.29154e-05
2.06171e-14
1.36136e-05
-1.60397e-14
1.43117e-05
4.61372e-15
1.50098e-05
-4.68881e-15
1.5708e-05
-4.79665e-14
1.64061e-05
1.37416e-14
1.71042e-05
-3.23706e-14
1.78024e-05
3.5187e-14
1.85005e-05
2.49107e-14
1.91986e-05
-7.19146e-14
1.98967e-05
2.05949e-05
6.19757e-15
4.53785e-06
-2.82276e-17
5.23599e-06
-1.15117e-14
5.93412e-06
2.06263e-14
6.63225e-06
-5.36691e-15
7.33038e-06
-1.22129e-15
8.02851e-06
4.77151e-17
8.72664e-06
-1.23916e-14
9.42478e-06
1.32279e-14
1.01229e-05
1.88958e-14
1.0821e-05
4.96404e-15
1.15192e-05
7.15372e-15
1.22173e-05
1.48877e-14
1.29154e-05
-3.53374e-14
1.36136e-05
3.49733e-18
1.43117e-05
4.31393e-14
1.50098e-05
-1.35615e-14
1.5708e-05
2.82575e-14
1.64061e-05
-2.45173e-15
1.71042e-05
1.02421e-14
1.78024e-05
-2.38047e-14
1.85005e-05
-1.38695e-14
1.91986e-05
4.55656e-14
1.98967e-05
2.05949e-05
-5.17004e-15
4.53785e-06
7.45591e-15
5.23599e-06
7.56735e-16
5.93412e-06
-6.83909e-15
6.63225e-06
9.97428e-15
7.33038e-06
1.6647e-15
8.02851e-06
-9.21928e-15
8.72664e-06
1.34603e-14
9.42478e-06
-2.32206e-14
1.01229e-05
-1.04713e-14
1.0821e-05
1.72725e-14
1.15192e-05
3.02694e-15
1.22173e-05
-1.13962e-14
1.29154e-05
1.98178e-14
1.36136e-05
4.67935e-15
1.43117e-05
-5.03054e-14
1.50098e-05
2.40467e-14
1.5708e-05
6.6588e-15