/*--------------------------------*- C++ -*----------------------------------*\
  =========                 |
  \\      /  F ield         | OpenFOAM: The Open Source CFD Toolbox
   \\    /   O peration     | Website:  https://openfoam.org
    \\  /    A nd           | Version:  11
     \\/     M anipulation  |
\*---------------------------------------------------------------------------*/
FoamFile
{
    format      ascii;
    class       volScalarField;
    location    "0.74";
    object      p;
}
// * * * * * * * * * * * * * * * * * * * * * * * * * * * * * * * * * * * * * //

dimensions      [0 2 -2 0 0 0 0];

internalField   nonuniform List<scalar> 
2880
(
1.11676
1.14012
1.16162
1.17049
1.11167
0.85975
1.11779
1.13624
1.1462
1.14263
1.04539
0.854603
1.1186
1.13091
1.13137
1.11803
1.02277
0.859092
1.11799
1.12604
1.12087
1.10107
1.01471
0.874054
1.11743
1.12262
1.11426
1.09074
1.01355
0.890717
1.11711
1.12034
1.11003
1.08485
1.01444
0.905325
1.11666
1.11874
1.10722
1.0815
1.01581
0.918217
1.11595
1.11746
1.1053
1.07937
1.01768
0.92987
1.11505
1.11627
1.10399
1.07799
1.02012
0.940593
1.11403
1.11503
1.1031
1.07731
1.02317
0.950539
1.11297
1.11369
1.10254
1.0774
1.02687
0.959754
1.11189
1.11226
1.10232
1.07825
1.03105
0.968627
1.11079
1.11081
1.10242
1.07987
1.03586
0.97706
1.10969
1.10945
1.10283
1.08221
1.04128
0.985118
1.10865
1.10824
1.10348
1.08514
1.0472
0.992837
1.10777
1.10723
1.10428
1.08852
1.0535
1.0002
1.10712
1.10649
1.10512
1.09218
1.06002
1.00714
1.10675
1.10602
1.10581
1.0959
1.06651
1.01343
1.10652
1.10568
1.10612
1.09937
1.07246
1.01862
1.10581
1.10522
1.10571
1.10211
1.07725
1.02216
1.10452
1.10427
1.10422
1.10334
1.08045
1.02444
1.10446
1.10265
1.1014
1.10203
1.08186
1.02595
1.10611
1.10075
1.09757
1.09792
1.07993
1.01377
1.10719
1.09913
1.09359
1.09232
1.06483
0.927831
-0.0488083
-0.0541031
0.00353429
0.0334631
0.0558491
0.0756722
0.093313
0.109301
0.123927
0.137283
0.149448
0.160517
0.170597
0.17979
0.188184
0.195858
0.202882
0.209322
0.215163
0.220157
0.224445
0.231685
0.248508
0.246216
0.262336
0.135149
0.142656
0.144908
0.146837
0.152177
0.159439
0.167516
0.175831
0.184031
0.19191
0.199366
0.206362
0.21289
0.218956
0.224569
0.229749
0.234537
0.238958
0.242832
0.245743
0.248883
0.259913
0.289498
0.454281
0.298212
0.26386
0.242836
0.22924
0.223048
0.221521
0.222671
0.225366
0.228914
0.232886
0.237016
0.24114
0.24515
0.248968
0.252528
0.255779
0.258706
0.261272
0.263114
0.263527
0.26464
0.277929
0.303686
0.58175
0.426615
0.365499
0.328071
0.303095
0.287831
0.279039
0.27431
0.272151
0.271625
0.272134
0.273291
0.274833
0.276575
0.278369
0.280091
0.281649
0.28299
0.283989
0.28409
0.282834
0.284459
0.30116
0.31338
0.668107
0.524852
0.450065
0.401601
0.368411
0.346316
0.331788
0.322235
0.315995
0.311982
0.309497
0.308066
0.307359
0.307129
0.30718
0.307349
0.307515
0.30761
0.307458
0.306436
0.304385
0.306687
0.325125
0.329982
0.72936
0.599297
0.519349
0.46455
0.425842
0.398765
0.379831
0.366408
0.356806
0.349878
0.344863
0.341236
0.33862
0.336726
0.335322
0.334214
0.333264
0.332386
0.331373
0.329574
0.327008
0.32957
0.348582
0.349569
0.774428
0.656788
0.576339
0.518373
0.476152
0.445574
0.423311
0.406876
0.394578
0.385268
0.378164
0.372715
0.368515
0.365248
0.362654
0.360517
0.358684
0.357054
0.3554
0.353057
0.350147
0.352779
0.371798
0.37059
0.808704
0.702138
0.62347
0.56438
0.520112
0.487179
0.46251
0.443782
0.42937
0.418156
0.409364
0.402436
0.396952
0.392576
0.389027
0.386073
0.383544
0.381333
0.379196
0.376464
0.37333
0.375945
0.394599
0.392107
0.835714
0.738609
0.662729
0.603723
0.558473
0.524068
0.497729
0.47731
0.461283
0.448585
0.438461
0.430361
0.42386
0.418608
0.414309
0.410718
0.407653
0.405001
0.402507
0.39951
0.396256
0.398806
0.416804
0.413599
0.857688
0.76845
0.695637
0.63745
0.59194
0.556722
0.529288
0.507669
0.490448
0.476624
0.465478
0.456475
0.449189
0.443264
0.438393
0.434317
0.43085
0.427871
0.425122
0.421963
0.41868
0.421126
0.438225
0.434693
0.876062
0.793221
0.723409
0.666428
0.621141
0.585589
0.557503
0.535079
0.517009
0.502362
0.490458
0.48078
0.47291
0.466486
0.461192
0.456761
0.453002
0.44979
0.446871
0.443635
0.440395
0.442703
0.458698
0.455111
0.891737
0.814027
0.74698
0.691384
0.646624
0.611076
0.582674
0.559756
0.541118
0.525896
0.513454
0.503295
0.495009
0.488232
0.482641
0.477962
0.474001
0.470634
0.467614
0.464369
0.46123
0.463366
0.47809
0.474634
0.905271
0.831654
0.767069
0.712902
0.668852
0.633544
0.605076
0.581906
0.562923
0.547329
0.534527
0.524047
0.515484
0.508474
0.502689
0.497848
0.49376
0.4903
0.487233
0.484033
0.481038
0.482967
0.496288
0.49309
0.917046
0.846651
0.784213
0.731454
0.688214
0.653304
0.624954
0.601716
0.582564
0.566758
0.553742
0.543068
0.53434
0.527195
0.521297
0.516365
0.512207
0.508702
0.50563
0.502517
0.499693
0.501385
0.513211
0.510347
0.927303
0.859393
0.798812
0.747409
0.705031
0.670626
0.642527
0.61936
0.600173
0.58428
0.571162
0.560393
0.551588
0.544382
0.538436
0.533467
0.529284
0.525771
0.522725
0.519728
0.517092
0.518522
0.528798
0.526304
0.936165
0.870122
0.811156
0.761056
0.719568
0.685739
0.657985
0.634992
0.61587
0.599982
0.586847
0.576059
0.567243
0.560032
0.554086
0.54912
0.544944
0.541448
0.53845
0.535588
0.533148
0.534299
0.54301
0.540896
0.943655
0.878971
0.821451
0.772621
0.732046
0.698842
0.671499
0.648751
0.629764
0.613949
0.600856
0.590101
0.581319
0.574143
0.568229
0.563293
0.559147
0.555686
0.552748
0.550033
0.547792
0.548662
0.555841
0.554083
0.949702
0.885993
0.829847
0.782292
0.742657
0.71011
0.683219
0.660762
0.641956
0.626255
0.613242
0.602553
0.593832
0.586716
0.580855
0.575964
0.571862
0.568445
0.565576
0.56301
0.560976
0.561602
0.56733
0.565787
0.954148
0.891184
0.836456
0.790243
0.751575
0.719705
0.693283
0.671139
0.652537
0.636971
0.624054
0.613446
0.604799
0.597752
0.591952
0.587114
0.583058
0.579687
0.576883
0.574459
0.572633
0.573077
0.577407
0.575712
0.956858
0.894501
0.841354
0.796629
0.758977
0.727786
0.701824
0.679991
0.661592
0.64616
0.63334
0.62281
0.614236
0.607255
0.601514
0.596726
0.592711
0.589374
0.586617
0.584305
0.582629
0.582835
0.585853
0.584185
0.957738
0.895894
0.844643
0.80162
0.765034
0.734506
0.708973
0.687419
0.669197
0.65388
0.64114
0.630674
0.622159
0.615234
0.609544
0.604797
0.600813
0.5975
0.594777
0.592547
0.59095
0.590831
0.592736
0.591538
0.955833
0.895422
0.846598
0.805494
0.769945
0.740014
0.714837
0.693511
0.675424
0.660184
0.647492
0.637063
0.628585
0.621699
0.616046
0.611332
0.607373
0.604078
0.601385
0.599226
0.597686
0.597275
0.598293
0.597555
0.947902
0.893941
0.847906
0.808652
0.773949
0.744455
0.719514
0.698329
0.680314
0.665106
0.652423
0.641997
0.633526
0.626655
0.621023
0.61633
0.612389
0.609108
0.606438
0.604336
0.602842
0.602214
0.602563
0.602155
0.933058
0.89389
0.849543
0.811515
0.777263
0.747948
0.723072
0.701915
0.683896
0.66866
0.655941
0.645481
0.636985
0.630103
0.624472
0.619788
0.615855
0.612581
0.609926
0.607861
0.606395
0.605617
0.605518
0.605342
1.09509
1.06935
1.04176
1.01814
1.03728
1.09149
1.09859
1.07262
1.04545
1.01967
1.02665
1.04574
1.1019
1.07835
1.05096
1.02418
1.02078
1.01675
1.1023
1.08292
1.05507
1.02782
1.017
1.0017
1.10023
1.08465
1.05673
1.02929
1.01271
0.991216
1.0974
1.08421
1.05657
1.02904
1.0077
0.981999
1.09477
1.08279
1.05531
1.02767
1.00239
0.973583
1.09146
1.08106
1.05344
1.02555
0.996969
0.96568
1.08774
1.07946
1.05131
1.02294
0.991394
0.95791
1.08428
1.07834
1.04924
1.02002
0.985624
0.949954
1.08164
1.07796
1.04748
1.01695
0.979642
0.941531
1.08024
1.07852
1.04621
1.01388
0.973401
0.932375
1.08031
1.08016
1.04556
1.01095
0.966842
0.922216
1.08199
1.08281
1.0457
1.00824
0.959912
0.910774
1.08516
1.08663
1.04663
1.0059
0.952555
0.897732
1.08959
1.09145
1.04839
1.00402
0.944733
0.882721
1.09491
1.09692
1.05092
1.00269
0.936484
0.865315
1.10061
1.10259
1.05405
1.00194
0.927883
0.845099
1.10613
1.10793
1.05753
1.00186
0.918988
0.821824
1.11089
1.11248
1.06112
1.00284
0.910126
0.795517
1.11449
1.1161
1.06524
1.00614
0.902578
0.767184
1.11724
1.11973
1.07148
1.01379
0.899318
0.740136
1.12033
1.12438
1.08076
1.02459
0.903132
0.717756
1.12357
1.12776
1.0871
1.02605
0.916068
0.701093
0.947793
0.896963
0.851969
0.814259
0.779948
0.750524
0.725536
0.704284
0.686176
0.670853
0.658049
0.647513
0.638956
0.632036
0.626387
0.621698
0.617764
0.614491
0.61184
0.609792
0.608336
0.60747
0.607147
0.607109
0.952297
0.901639
0.854846
0.816497
0.781815
0.752092
0.726857
0.705412
0.687142
0.671676
0.658742
0.64809
0.639439
0.63245
0.62676
0.62205
0.618107
0.614827
0.612172
0.610121
0.608655
0.60776
0.607446
0.607458
0.948646
0.902866
0.856422
0.817599
0.782556
0.752479
0.726935
0.705233
0.686752
0.671102
0.658002
0.6472
0.638421
0.631335
0.625581
0.620835
0.616872
0.613578
0.610907
0.608829
0.607333
0.606505
0.606425
0.60636
0.944006
0.901167
0.856047
0.817148
0.781903
0.751511
0.725649
0.703663
0.684943
0.669085
0.655795
0.644819
0.635887
0.628679
0.622839
0.618041
0.614048
0.610735
0.608042
0.605918
0.604375
0.603672
0.604057
0.603826
0.939211
0.897638
0.853784
0.814997
0.779684
0.749041
0.722884
0.700614
0.681648
0.665572
0.652081
0.640916
0.631813
0.624463
0.61852
0.613655
0.609624
0.606287
0.603565
0.601379
0.599778
0.599274
0.60035
0.599845
0.933959
0.892735
0.849817
0.811137
0.775804
0.744962
0.718539
0.696
0.676795
0.660505
0.646813
0.635456
0.626174
0.61867
0.612608
0.607665
0.603587
0.600223
0.597468
0.595212
0.59355
0.593333
0.595334
0.594357
0.92803
0.886625
0.844252
0.805579
0.770204
0.739186
0.712521
0.689738
0.670312
0.653823
0.639943
0.628402
0.618942
0.611277
0.605088
0.600055
0.595921
0.592522
0.589728
0.587385
0.58562
0.585666
0.588825
0.587654
0.921286
0.879312
0.837101
0.7983
0.762822
0.73163
0.704743
0.681742
0.662124
0.645462
0.631416
0.61971
0.610084
0.602264
0.595944
0.590812
0.586612
0.583166
0.580318
0.577854
0.575909
0.576127
0.580593
0.579697
0.913565
0.87068
0.828291
0.789222
0.753577
0.722198
0.695109
0.671923
0.65215
0.635352
0.621177
0.609336
0.59957
0.59161
0.585165
0.579935
0.575663
0.572166
0.569255
0.566655
0.564516
0.564961
0.570819
0.569835
0.904669
0.860517
0.817659
0.778208
0.74234
0.710768
0.683506
0.66018
0.6403
0.623418
0.609163
0.597233
0.587364
0.579294
0.572744
0.567427
0.563091
0.559547
0.556578
0.55384
0.551515
0.552246
0.559619
0.558351
0.894346
0.848531
0.804944
0.765036
0.728923
0.69718
0.669794
0.646391
0.626475
0.609577
0.595308
0.58335
0.573432
0.565296
0.558674
0.553294
0.548911
0.545332
0.542314
0.539447
0.536938
0.537973
0.546932
0.54534
0.882266
0.834331
0.789786
0.749396
0.713074
0.681228
0.653804
0.630418
0.610559
0.593737
0.579539
0.567632
0.557736
0.549594
0.542949
0.537541
0.533137
0.529546
0.526498
0.523518
0.520834
0.522173
0.53275
0.530821
0.867997
0.817411
0.771703
0.730873
0.694459
0.662648
0.635326
0.612094
0.592422
0.575795
0.56178
0.550025
0.54024
0.532168
0.525563
0.520178
0.515793
0.51222
0.509171
0.506107
0.503264
0.5049
0.517089
0.514835
0.850958
0.797116
0.75008
0.708939
0.672655
0.641114
0.614112
0.591228
0.571917
0.555644
0.541952
0.530473
0.520909
0.513004
0.506519
0.501222
0.496906
0.493393
0.490381
0.487272
0.484303
0.486226
0.499982
0.497449
0.830361
0.772622
0.724129
0.682926
0.647137
0.616228
0.589864
0.567599
0.548883
0.533165
0.519974
0.508926
0.499719
0.492096
0.485828
0.480699
0.476517
0.473116
0.470188
0.467087
0.464039
0.466237
0.481476
0.478753
0.805139
0.742889
0.692845
0.652005
0.617266
0.587519
0.562242
0.540965
0.523146
0.508241
0.495769
0.485343
0.476655
0.469454
0.463521
0.458655
0.454685
0.451459
0.448672
0.445641
0.442574
0.445037
0.461632
0.458855
0.773904
0.706483
0.65493
0.615165
0.582286
0.55444
0.530861
0.511057
0.494527
0.480754
0.469272
0.459695
0.451721
0.445107
0.439649
0.435163
0.431497
0.42852
0.425938
0.423047
0.420034
0.422748
0.440527
0.437883
0.734822
0.661297
0.608814
0.571229
0.541344
0.516384
0.495302
0.4776
0.462847
0.450599
0.440427
0.431971
0.424941
0.419112
0.414294
0.410324
0.407074
0.404434
0.402131
0.399458
0.396576
0.399521
0.418253
0.415992
0.685214
0.604425
0.552731
0.518934
0.493531
0.472715
0.455139
0.440316
0.42794
0.417685
0.409205
0.402185
0.396368
0.391551
0.387567
0.384278
0.381578
0.379382
0.377444
0.375075
0.372407
0.375538
0.394923
0.393381
0.621341
0.532245
0.484753
0.456975
0.437947
0.422815
0.409965
0.39896
0.389664
0.381954
0.375604
0.370382
0.366083
0.36254
0.359617
0.357202
0.355213
0.353593
0.352128
0.350161
0.347791
0.351031
0.37068
0.370352
0.538901
0.440418
0.402814
0.384106
0.373774
0.366162
0.359448
0.353345
0.347922
0.343388
0.339658
0.336634
0.334193
0.332221
0.33062
0.329308
0.32823
0.327352
0.326499
0.32506
0.323078
0.326289
0.34568
0.347394
0.431677
0.324382
0.304994
0.299397
0.300458
0.302429
0.303395
0.303338
0.302732
0.302028
0.301442
0.301048
0.300833
0.300756
0.30077
0.300831
0.300908
0.300992
0.300945
0.300218
0.298745
0.301672
0.320014
0.325362
0.280988
0.180433
0.189443
0.202337
0.217832
0.231594
0.241835
0.249028
0.25413
0.257965
0.261074
0.263754
0.266145
0.268305
0.270255
0.271996
0.273528
0.274862
0.275913
0.276221
0.275509
0.277681
0.293412
0.305728
0.0362199
0.0164571
0.0598657
0.0947205
0.126926
0.154234
0.175123
0.190654
0.202319
0.211372
0.218708
0.224894
0.23026
0.234993
0.2392
0.242946
0.246278
0.249238
0.251828
0.253759
0.25451
0.255756
0.266542
0.2912
-0.583367
-0.569764
-0.574455
-0.594821
-0.625513
-0.697792
-0.585544
-0.57522
-0.584014
-0.607448
-0.633764
-0.692431
-0.588016
-0.581695
-0.594438
-0.618994
-0.638655
-0.667687
-0.59042
-0.587401
-0.603153
-0.627964
-0.6453
-0.664255
-0.59318
-0.592839
-0.610496
-0.635368
-0.653838
-0.670442
-0.596412
-0.59856
-0.617195
-0.642088
-0.662688
-0.679245
-0.599925
-0.604562
-0.623485
-0.64828
-0.67072
-0.688958
-0.603494
-0.610594
-0.629311
-0.653854
-0.677648
-0.698177
-0.606934
-0.616406
-0.634562
-0.658694
-0.683368
-0.706084
-0.610107
-0.621812
-0.639152
-0.662715
-0.687812
-0.712248
-0.612934
-0.626679
-0.643045
-0.665873
-0.690985
-0.716558
-0.615386
-0.63089
-0.646283
-0.668162
-0.692975
-0.719038
-0.617472
-0.634439
-0.648882
-0.669674
-0.693847
-0.719818
-0.61924
-0.63731
-0.650865
-0.670657
-0.693606
-0.719185
-0.620758
-0.639513
-0.652303
-0.671314
-0.692414
-0.717423
-0.622095
-0.641096
-0.653331
-0.671678
-0.690851
-0.714697
-0.623303
-0.642147
-0.654089
-0.671776
-0.689507
-0.711386
-0.624422
-0.642796
-0.654732
-0.671797
-0.688486
-0.708553
-0.625499
-0.643207
-0.655446
-0.672131
-0.687981
-0.707435
-0.62642
-0.64362
-0.656484
-0.67323
-0.688714
-0.709042
-0.625604
-0.644574
-0.658171
-0.675482
-0.691446
-0.713783
-0.624618
-0.647086
-0.660754
-0.678955
-0.696276
-0.720325
-0.62669
-0.650172
-0.66374
-0.682621
-0.70285
-0.731097
-0.628412
-0.652232
-0.665173
-0.683871
-0.711485
-0.810276
-0.323849
-0.172718
-0.0840509
-0.02085
0.0302198
0.0717443
0.104067
0.128724
0.147651
0.162508
0.174545
0.184619
0.193279
0.200866
0.207599
0.213628
0.219068
0.224024
0.228573
0.23256
0.235515
0.23875
0.249875
0.268518
-0.460593
-0.35003
-0.227811
-0.137605
-0.0687627
-0.0138241
0.0298802
0.0639934
0.0906226
0.111716
0.128827
0.143087
0.155272
0.165891
0.175285
0.183689
0.191276
0.198179
0.204425
0.209748
0.213998
0.22017
0.234903
0.232341
-0.543589
-0.466399
-0.349491
-0.248179
-0.166673
-0.100157
-0.0460004
-0.00262592
0.0318398
0.0594144
0.0818453
0.10049
0.116331
0.130045
0.142085
0.152754
0.162251
0.170693
0.17804
0.183954
0.188566
0.195876
0.211779
0.199907
-0.613829
-0.536864
-0.44738
-0.34951
-0.261342
-0.185681
-0.122346
-0.0702617
-0.0280753
0.0060597
0.0339466
0.0570939
0.0766589
0.0934733
0.108107
0.120931
0.132172
0.141953
0.150238
0.156747
0.161825
0.169712
0.185663
0.17154
-0.660342
-0.593332
-0.528548
-0.441093
-0.351537
-0.269413
-0.198182
-0.138148
-0.0885268
-0.0478737
-0.0144783
0.0132369
0.0365614
0.0564699
0.0736508
0.0885576
0.101469
0.112543
0.121801
0.129088
0.134905
0.143314
0.158955
0.145418
-0.68699
-0.646264
-0.596686
-0.522291
-0.436143
-0.350453
-0.272734
-0.205546
-0.148899
-0.101876
-0.0629861
-0.0306741
-0.00356684
0.0194322
0.0391314
0.0560834
0.0706419
0.0830292
0.0933505
0.10159
0.108338
0.117277
0.132522
0.121093
-0.705353
-0.692131
-0.653691
-0.592915
-0.513921
-0.427678
-0.345164
-0.271687
-0.208541
-0.155388
-0.111078
-0.0741685
-0.0432615
-0.0171645
0.00504636
0.0240339
0.0402486
0.0539992
0.065486
0.0748204
0.0826132
0.0921101
0.106982
0.0985894
-0.720218
-0.72715
-0.701514
-0.653536
-0.583577
-0.499735
-0.414394
-0.335699
-0.266668
-0.207729
-0.158157
-0.116702
-0.0819971
-0.0527897
-0.0280567
-0.00702293
0.0108723
0.0260385
0.0387752
0.0493022
0.0582151
0.0683032
0.0828457
0.0780111
-0.731999
-0.751452
-0.740379
-0.704558
-0.643838
-0.564987
-0.478997
-0.396425
-0.322301
-0.258068
-0.203505
-0.157639
-0.119183
-0.0868681
-0.0596015
-0.036505
-0.0169055
-0.000286086
0.0137536
0.0255275
0.0355989
0.0463098
0.0605671
0.0594898
-0.740834
-0.76739
-0.769423
-0.745295
-0.693791
-0.621465
-0.537196
-0.452402
-0.374221
-0.305349
-0.246239
-0.196235
-0.154153
-0.118782
-0.0889935
-0.0638305
-0.042517
-0.0244311
-0.00907254
0.00395742
0.0151918
0.0265434
0.0405829
0.0432059
-0.746846
-0.777064
-0.788616
-0.774656
-0.73271
-0.667337
-0.586911
-0.501826
-0.420903
-0.348289
-0.285247
-0.231621
-0.186172
-0.147889
-0.115638
-0.0884372
-0.0654272
-0.0458915
-0.0292382
-0.0149934
-0.00261687
0.00939212
0.0232911
0.0293228
-0.750097
-0.781687
-0.798753
-0.792496
-0.759484
-0.701172
-0.625928
-0.542613
-0.460592
-0.385309
-0.319543
-0.262715
-0.214266
-0.173495
-0.138921
-0.109769
-0.0851333
-0.0642124
-0.0463337
-0.0309479
-0.0174941
-0.00482874
0.00899389
0.0179243
-0.750747
-0.781982
-0.801077
-0.799597
-0.77332
-0.722048
-0.652443
-0.572643
-0.49147
-0.415217
-0.347075
-0.288502
-0.237943
-0.194566
-0.158087
-0.127246
-0.101164
-0.0789994
-0.0600159
-0.0436049
-0.0292087
-0.0159055
-0.00210514
0.00902637
-0.749141
-0.778605
-0.796986
-0.797291
-0.774933
-0.729649
-0.665557
-0.590328
-0.511713
-0.436163
-0.36755
-0.307567
-0.255356
-0.210586
-0.172599
-0.140354
-0.113132
-0.0899593
-0.0700587
-0.0527974
-0.0376142
-0.0237484
-0.00994997
0.00264965
-0.745859
-0.772271
-0.787955
-0.787318
-0.766272
-0.724801
-0.665581
-0.595103
-0.520172
-0.446849
-0.379114
-0.318943
-0.266665
-0.220783
-0.181696
-0.148871
-0.120872
-0.0969623
-0.0763902
-0.0585033
-0.042729
-0.0284359
-0.0146315
-0.00125499
-0.741447
-0.763968
-0.775386
-0.771712
-0.749766
-0.70972
-0.654106
-0.587839
-0.516962
-0.446804
-0.381176
-0.322129
-0.270202
-0.224948
-0.185828
-0.152528
-0.124232
-0.0999856
-0.0790708
-0.0608538
-0.0447591
-0.0302094
-0.0164775
-0.0029904
-0.736573
-0.754656
-0.760826
-0.75259
-0.72798
-0.687477
-0.63374
-0.570745
-0.503604
-0.43692
-0.374143
-0.317188
-0.266689
-0.222547
-0.184251
-0.151386
-0.123266
-0.0991214
-0.0782714
-0.0600983
-0.0440379
-0.029525
-0.0160602
-0.00295747
-0.731903
-0.745397
-0.745732
-0.732077
-0.703509
-0.661108
-0.607658
-0.546795
-0.482674
-0.419253
-0.359497
-0.305127
-0.256753
-0.214318
-0.177422
-0.145593
-0.118232
-0.0946937
-0.0743576
-0.0566425
-0.0410224
-0.0269353
-0.0140557
-0.00167087
-0.728133
-0.737294
-0.731536
-0.71202
-0.678672
-0.633413
-0.579016
-0.519082
-0.457133
-0.396445
-0.339501
-0.287758
-0.241744
-0.201382
-0.166286
-0.135963
-0.109852
-0.0873741
-0.0679704
-0.0511104
-0.0363257
-0.023066
-0.0112005
0.000178144
-0.725998
-0.731446
-0.719527
-0.694093
-0.655696
-0.606823
-0.550641
-0.490539
-0.429835
-0.371197
-0.316631
-0.267301
-0.223597
-0.185386
-0.15226
-0.123699
-0.099148
-0.0780595
-0.0599215
-0.0442545
-0.0306518
-0.0185874
-0.00811319
0.00193299
-0.726489
-0.728532
-0.710773
-0.679707
-0.636331
-0.583546
-0.52491
-0.463836
-0.403398
-0.345995
-0.293213
-0.245909
-0.204297
-0.168149
-0.136995
-0.110278
-0.0874206
-0.0678873
-0.0512007
-0.0369336
-0.0247396
-0.0141499
-0.00524501
0.0030615
-0.730722
-0.728949
-0.70614
-0.669961
-0.621977
-0.565361
-0.503848
-0.441184
-0.380212
-0.323152
-0.271387
-0.225525
-0.185601
-0.15127
-0.121974
-0.0970833
-0.075974
-0.0580743
-0.0429061
-0.0300823
-0.0193229
-0.0103213
-0.00307238
0.00303173
-0.741258
-0.733298
-0.706207
-0.665491
-0.613464
-0.553315
-0.48895
-0.424211
-0.3621
-0.304638
-0.253087
-0.207932
-0.16909
-0.136104
-0.108332
-0.0850633
-0.0656146
-0.0493746
-0.0358395
-0.0246018
-0.0153562
-0.00787291
-0.00213826
0.00177163
-0.766393
-0.74202
-0.710727
-0.66634
-0.610949
-0.547536
-0.480297
-0.41328
-0.349566
-0.291138
-0.239162
-0.194049
-0.155669
-0.123458
-0.0967132
-0.0746605
-0.0565416
-0.0416906
-0.0296082
-0.0198586
-0.0121117
-0.00615752
-0.00199556
0.000303227
-0.806491
-0.819009
-0.83073
-0.83648
-0.803035
-0.733271
-0.80033
-0.817354
-0.829287
-0.838092
-0.816962
-0.772974
-0.788222
-0.81364
-0.825563
-0.836205
-0.82388
-0.800871
-0.782312
-0.810797
-0.822996
-0.834928
-0.829528
-0.8183
-0.788803
-0.81039
-0.82282
-0.835964
-0.83629
-0.832709
-0.80165
-0.811993
-0.824618
-0.838714
-0.84398
-0.846563
-0.809766
-0.814127
-0.827377
-0.842328
-0.851919
-0.859839
-0.81297
-0.816187
-0.830463
-0.846272
-0.859598
-0.872162
-0.815374
-0.817997
-0.83355
-0.850175
-0.866619
-0.883139
-0.818041
-0.819409
-0.836346
-0.853714
-0.872621
-0.892296
-0.820504
-0.820276
-0.838614
-0.856607
-0.877283
-0.899137
-0.822193
-0.820466
-0.840243
-0.858662
-0.880367
-0.903259
-0.822797
-0.820013
-0.841114
-0.859791
-0.88176
-0.904473
-0.822232
-0.818807
-0.841362
-0.860034
-0.881504
-0.902829
-0.820562
-0.816856
-0.841024
-0.859512
-0.879802
-0.898598
-0.817946
-0.814249
-0.840237
-0.858402
-0.876972
-0.892166
-0.814907
-0.811049
-0.839224
-0.857021
-0.873407
-0.884074
-0.815071
-0.807942
-0.838362
-0.855833
-0.869652
-0.875639
-0.820327
-0.806851
-0.838004
-0.855346
-0.866728
-0.869441
-0.823404
-0.80689
-0.837771
-0.855816
-0.866107
-0.868325
-0.820822
-0.806294
-0.836995
-0.857033
-0.869077
-0.879051
-0.813131
-0.80395
-0.835123
-0.858628
-0.87525
-0.91246
-0.802497
-0.800253
-0.83282
-0.860061
-0.882387
-0.958419
-0.797398
-0.797855
-0.832463
-0.862476
-0.888878
-0.983806
-0.778152
-0.753756
-0.719556
-0.67265
-0.614472
-0.54783
-0.477394
-0.407574
-0.341705
-0.281752
-0.228815
-0.18323
-0.144746
-0.11274
-0.0865008
-0.0652133
-0.0480948
-0.0344986
-0.0237926
-0.0154023
-0.0089179
-0.00414829
-0.00109488
0.000507514
-0.787365
-0.765807
-0.732774
-0.684933
-0.624346
-0.554222
-0.479866
-0.406315
-0.337336
-0.275025
-0.220412
-0.173731
-0.134614
-0.102384
-0.0762598
-0.0554462
-0.0391954
-0.0267362
-0.0172802
-0.0102442
-0.00516397
-0.00153083
0.00148138
0.00418677
-0.803149
-0.781837
-0.75084
-0.703313
-0.640726
-0.566628
-0.487296
-0.408788
-0.335464
-0.269749
-0.212652
-0.164268
-0.124062
-0.0911955
-0.0647586
-0.0438421
-0.0275813
-0.0151754
-0.00599674
0.000469063
0.00471631
0.00753508
0.0103768
0.0114338
-0.819446
-0.801361
-0.773799
-0.727955
-0.663837
-0.585163
-0.499571
-0.414593
-0.335477
-0.265129
-0.204636
-0.153924
-0.112209
-0.0784581
-0.0516111
-0.0306443
-0.014625
-0.00274754
0.00564773
0.0110976
0.0141002
0.0154797
0.0164161
0.0138264
-0.836008
-0.823727
-0.80149
-0.758963
-0.694003
-0.610228
-0.517108
-0.424246
-0.338156
-0.262217
-0.19762
-0.144095
-0.100586
-0.0657948
-0.0384622
-0.0174344
-0.00170565
0.00955577
0.0170201
0.0212178
0.022586
0.0217139
0.0191893
0.0131353
-0.853233
-0.848365
-0.833429
-0.796027
-0.731093
-0.641697
-0.539562
-0.437118
-0.342674
-0.260447
-0.191624
-0.135529
-0.0906445
-0.0552788
-0.0278789
-0.00710622
0.00813832
0.018738
0.0253968
0.028675
0.0289942
0.0268678
0.0224225
0.01499
-0.870873
-0.874441
-0.868618
-0.838167
-0.774164
-0.678508
-0.56512
-0.451047
-0.347233
-0.25845
-0.185631
-0.127481
-0.0818643
-0.046619
-0.0198041
0.000209507
0.0146565
0.0244416
0.0302491
0.0326797
0.0323866
0.0301336
0.0251211
0.0186177
-0.88818
-0.900708
-0.905409
-0.883677
-0.821447
-0.719158
-0.592917
-0.467641
-0.354844
-0.259979
-0.183725
-0.124053
-0.0781547
-0.0433704
-0.0174392
0.0017022
0.0155001
0.0248082
0.0301165
0.0315617
0.0302569
0.0281522
0.0226801
0.0188904
-0.904161
-0.925491
-0.941377
-0.929483
-0.869424
-0.760174
-0.624136
-0.489441
-0.370012
-0.271249
-0.193051
-0.132543
-0.0864037
-0.0517529
-0.0263836
-0.00787281
0.00576164
0.0153178
0.021824
0.0263552
0.0281241
0.0268633
0.0228173
0.0213038
-0.917688
-0.946727
-0.973386
-0.970555
-0.911575
-0.79665
-0.652911
-0.512228
-0.389556
-0.289688
-0.21159
-0.151452
-0.10539
-0.0701052
-0.0428867
-0.022522
-0.00794204
0.00237868
0.00981886
0.0152883
0.018611
0.0197358
0.0196367
0.0233658
-0.927632
-0.962516
-0.998244
-0.999992
-0.939964
-0.819204
-0.670441
-0.52742
-0.40479
-0.306341
-0.230022
-0.171159
-0.125552
-0.0900212
-0.0621392
-0.0402188
-0.0231459
-0.010072
-0.000353982
0.00696931
0.0120731
0.0155573
0.0194159
0.0261519
-0.933073
-0.971583
-1.01255
-1.01275
-0.948221
-0.821376
-0.670961
-0.529946
-0.410046
-0.315172
-0.241568
-0.184201
-0.139004
-0.10321
-0.0747367
-0.051965
-0.0337275
-0.0190578
-0.00745313
0.00167873
0.00910706
0.0160219
0.0241734
0.0300422
-0.933434
-0.972834
-1.01427
-1.00693
-0.933808
-0.802113
-0.654044
-0.517834
-0.404324
-0.315494
-0.244943
-0.189486
-0.145213
-0.109528
-0.0806383
-0.0571531
-0.0379751
-0.0221942
-0.00922162
0.00133068
0.010658
0.0194967
0.0294642
0.0346468
-0.928695
-0.966469
-1.00065
-0.982951
-0.898444
-0.763827
-0.620853
-0.49312
-0.389688
-0.306192
-0.239635
-0.186722
-0.14403
-0.109195
-0.0805926
-0.056962
-0.0373012
-0.0208168
-0.00682276
0.00504232
0.0150577
0.0248304
0.0374343
0.0428705
-0.919464
-0.953645
-0.971293
-0.941833
-0.845946
-0.711006
-0.575982
-0.459526
-0.36483
-0.288055
-0.226208
-0.176197
-0.135382
-0.101773
-0.0739209
-0.0506896
-0.0311578
-0.0145891
-0.00042969
0.0117085
0.0223062
0.033371
0.0485152
0.0529583
-0.906773
-0.936432
-0.929248
-0.885147
-0.779919
-0.648035
-0.52259
-0.417549
-0.332082
-0.262304
-0.205373
-0.158762
-0.120293
-0.0882713
-0.0614416
-0.0388358
-0.0196737
-0.00331871
0.0107281
0.0228229
0.0334876
0.0451919
0.0619694
0.064386
-0.891221
-0.909583
-0.880509
-0.816333
-0.703626
-0.577582
-0.463911
-0.369618
-0.292812
-0.229899
-0.17806
-0.13515
-0.0993974
-0.0693768
-0.0439919
-0.022399
-0.00393375
0.0119369
0.0256224
0.037398
0.0478275
0.0598599
0.0777099
0.0773356
-0.874708
-0.864981
-0.826664
-0.738849
-0.620341
-0.502561
-0.400694
-0.317015
-0.248657
-0.192326
-0.145539
-0.106446
-0.073577
-0.0457578
-0.0220701
-0.00179786
0.0156268
0.0306645
0.0436693
0.0548479
0.0647792
0.0768398
0.0954242
0.0919333
-0.858666
-0.807971
-0.760103
-0.653057
-0.532589
-0.424384
-0.334346
-0.260807
-0.20051
-0.150575
-0.108837
-0.0736878
-0.0438848
-0.0184541
0.00335867
0.0221358
0.0383381
0.0523475
0.0644598
0.0748234
0.0840292
0.0958161
0.114775
0.108055
-0.836296
-0.755332
-0.678202
-0.558258
-0.441279
-0.34392
-0.265387
-0.201633
-0.149205
-0.105565
-0.0688659
-0.0377371
-0.0111377
0.0117329
0.0314878
0.0485949
0.0634213
0.0762738
0.0873764
0.0968009
0.105133
0.116458
0.135588
0.125815
-0.78644
-0.702269
-0.583036
-0.454628
-0.346252
-0.261275
-0.1943
-0.140199
-0.0955788
-0.0582229
-0.026581
0.000474997
0.0237865
0.0439918
0.0615736
0.076897
0.0902473
0.101863
0.111892
0.120311
0.127697
0.138449
0.157633
0.145282
-0.709342
-0.614357
-0.46734
-0.34147
-0.247246
-0.176589
-0.12172
-0.0773795
-0.0405568
-0.00945061
0.0171485
0.04011
0.0600806
0.0775489
0.0928826
0.106356
0.118184
0.12854
0.137494
0.144912
0.151344
0.161445
0.180587
0.166483
-0.624239
-0.465321
-0.322889
-0.219003
-0.145343
-0.0909716
-0.0486876
-0.0141375
0.0149709
0.0399155
0.0615312
0.0804207
0.0970395
0.111736
0.124777
0.136358
0.146636
0.15573
0.163642
0.17013
0.175672
0.185056
0.204021
0.189531
-0.485346
-0.265143
-0.156201
-0.0907107
-0.042889
-0.00606533
0.0235227
0.0484627
0.070084
0.089062
0.105834
0.120737
0.134042
0.14597
0.156694
0.166349
0.175043
0.182859
0.189761
0.195451
0.200287
0.208885
0.227346
0.215016
)
;

boundaryField
{
    rotor
    {
        type            zeroGradient;
    }
    freestream
    {
        type            freestreamPressure;
        freestreamValue uniform 0;
        supersonic      false;
        value           nonuniform List<scalar> 
96
(
0.115231
0.144929
0.161659
0.177593
0.198364
0.222
0.247631
0.274613
0.30248
0.330812
0.359224
0.38735
0.414845
0.44139
0.466695
0.490499
0.512575
0.53267
0.550333
0.565718
0.579021
0.589925
0.598261
0.603961
0.606972
0.607268
0.604821
0.599663
0.591829
0.581329
0.568535
0.553515
0.535775
0.515746
0.493688
0.469803
0.444326
0.417524
0.389689
0.361132
0.332175
0.303156
0.274435
0.246419
0.219599
0.194619
0.172363
0.15423
0.133385
0.108027
0.0866481
0.0690367
0.0541384
0.0415579
0.0310854
0.0225267
0.0156858
0.0103736
0.00639447
0.00354175
0.00161235
0.000426824
-0.000181782
-0.000387941
-0.000341664
-0.000170423
1.58475e-05
0.00014758
0.000196551
0.000159494
7.39279e-05
9.50635e-06
1.04363e-05
3.68587e-05
1.06973e-05
2.67988e-05
0.000130322
0.000299821
0.000559787
0.000769646
0.00114864
0.00165058
0.00235653
0.00336885
0.00464947
0.00671562
0.00952335
0.0131273
0.0177049
0.0234596
0.0305441
0.0391691
0.0495508
0.0618972
0.0764437
0.0936342
)
;
    }
    frontAndBack
    {
        type            empty;
    }
}


// ************************************************************************* //
