/*--------------------------------*- C++ -*----------------------------------*\
  =========                 |
  \\      /  F ield         | OpenFOAM: The Open Source CFD Toolbox
   \\    /   O peration     | Website:  https://openfoam.org
    \\  /    A nd           | Version:  11
     \\/     M anipulation  |
\*---------------------------------------------------------------------------*/
FoamFile
{
    format      ascii;
    class       surfaceScalarField;
    location    "0.74";
    object      phi;
}
// * * * * * * * * * * * * * * * * * * * * * * * * * * * * * * * * * * * * * //

dimensions      [0 3 -1 0 0 0 0];

internalField   nonuniform List<scalar> 
5640
(
-3.41713e-07
3.41713e-07
-1.47209e-07
-1.94504e-07
1.05143e-06
-1.19864e-06
3.07196e-06
-2.02053e-06
7.70271e-06
-4.63075e-06
-8.05653e-06
1.57592e-05
-2.67008e-07
6.0872e-07
1.65216e-07
-6.26727e-07
1.47292e-06
-2.50634e-06
3.86837e-06
-4.41598e-06
7.38963e-06
-8.15201e-06
-1.31949e-05
1.2528e-05
-1.74409e-07
7.83129e-07
3.71502e-07
-1.17264e-06
1.68715e-06
-3.82198e-06
3.99035e-06
-6.71919e-06
7.04008e-06
-1.12017e-05
-1.67865e-05
1.06318e-05
-9.9623e-08
8.82752e-07
5.00256e-07
-1.77252e-06
1.7566e-06
-5.07833e-06
3.82489e-06
-8.78748e-06
6.35988e-06
-1.37367e-05
-1.92964e-05
8.86973e-06
-2.54669e-08
9.08219e-07
5.63796e-07
-2.36178e-06
1.71246e-06
-6.22699e-06
3.48887e-06
-1.05639e-05
5.49323e-06
-1.57411e-05
-2.10003e-05
7.19717e-06
2.84202e-08
8.79799e-07
5.70631e-07
-2.90399e-06
1.5755e-06
-7.23186e-06
3.03818e-06
-1.20266e-05
4.55416e-06
-1.72571e-05
-2.20967e-05
5.65048e-06
5.96198e-08
8.20179e-07
5.28546e-07
-3.37292e-06
1.36359e-06
-8.06691e-06
2.51287e-06
-1.31758e-05
3.59094e-06
-1.83351e-05
-2.27279e-05
4.2222e-06
7.05979e-08
7.49581e-07
4.46399e-07
-3.74872e-06
1.09457e-06
-8.71507e-06
1.94148e-06
-1.40228e-05
2.63689e-06
-1.90306e-05
-2.29924e-05
2.90134e-06
6.39529e-08
6.85628e-07
3.3382e-07
-4.01858e-06
7.86454e-07
-9.16771e-06
1.34572e-06
-1.4582e-05
1.71145e-06
-1.93963e-05
-2.296e-05
1.67904e-06
4.41739e-08
6.41454e-07
2.00875e-07
-4.17529e-06
4.56217e-07
-9.42305e-06
7.44713e-07
-1.48705e-05
8.24257e-07
-1.94758e-05
-2.26798e-05
5.44142e-07
1.66163e-08
6.24838e-07
5.75174e-08
-4.21619e-06
1.19159e-07
-9.48469e-06
1.53494e-07
-1.49049e-05
-2.24841e-08
-1.92998e-05
-2.21931e-05
-5.09252e-07
-1.48486e-08
6.39687e-07
-8.71298e-08
-4.14391e-06
-2.14089e-07
-9.35773e-06
-4.14536e-07
-1.47044e-05
-8.11913e-07
-1.89025e-05
-2.15185e-05
-1.48647e-06
-4.51677e-08
6.84854e-07
-2.24431e-07
-3.96464e-06
-5.31191e-07
-9.05097e-06
-9.52055e-07
-1.42836e-05
-1.55274e-06
-1.83018e-05
-2.06799e-05
-2.3914e-06
-6.87685e-08
7.53623e-07
-3.46512e-07
-3.6869e-06
-8.22502e-07
-8.57498e-06
-1.45068e-06
-1.36554e-05
-2.23738e-06
-1.75151e-05
-1.96927e-05
-3.22458e-06
-8.18328e-08
8.35456e-07
-4.4631e-07
-3.32242e-06
-1.07891e-06
-7.94238e-06
-1.90259e-06
-1.28317e-05
-2.86268e-06
-1.6555e-05
-1.8569e-05
-3.98631e-06
-8.0618e-08
9.16074e-07
-5.17295e-07
-2.88574e-06
-1.29136e-06
-7.16832e-06
-2.29986e-06
-1.18232e-05
-3.42546e-06
-1.54294e-05
-1.73179e-05
-4.67663e-06
-6.1796e-08
9.7787e-07
-5.53456e-07
-2.39408e-06
-1.45052e-06
-6.27126e-06
-2.63344e-06
-1.06403e-05
-3.92184e-06
-1.4141e-05
-1.59443e-05
-5.29542e-06
-2.33332e-08
1.0012e-06
-5.49525e-07
-1.86789e-06
-1.54654e-06
-5.27424e-06
-2.89219e-06
-9.29462e-06
-4.34639e-06
-1.26868e-05
-1.44482e-05
-5.84248e-06
2.96786e-08
9.71524e-07
-5.0169e-07
-1.33652e-06
-1.56886e-06
-4.20707e-06
-3.0615e-06
-7.80198e-06
-4.69083e-06
-1.10575e-05
-1.28212e-05
-6.31779e-06
8.6374e-08
8.8515e-07
-4.08989e-07
-8.41162e-07
-1.50595e-06
-3.11011e-06
-3.12216e-06
-6.18577e-06
-4.94304e-06
-9.23657e-06
-1.10435e-05
-6.72075e-06
1.46288e-07
7.38863e-07
-2.73887e-07
-4.20988e-07
-1.34443e-06
-2.03957e-06
-3.04828e-06
-4.48191e-06
-5.08339e-06
-7.20147e-06
-9.08249e-06
-7.04443e-06
2.08062e-07
5.30801e-07
-9.91319e-08
-1.13794e-07
-1.06662e-06
-1.07208e-06
-2.79638e-06
-2.75215e-06
-5.06877e-06
-4.92908e-06
-6.88213e-06
-7.26913e-06
2.69452e-07
2.61349e-07
1.12114e-07
4.35441e-08
-6.41531e-07
-3.18433e-07
-2.25484e-06
-1.13884e-06
-4.71978e-06
-2.46414e-06
-4.17221e-06
-7.4297e-06
2.61349e-07
3.04893e-07
-1.35398e-08
-1.15238e-06
-3.61652e-06
-7.78873e-06
1.48202e-05
-3.50054e-05
3.59444e-05
1.41045e-05
-4.49458e-05
4.56615e-05
1.30706e-05
-4.88139e-05
4.98478e-05
1.20802e-05
-5.05715e-05
5.15619e-05
1.12235e-05
-5.14194e-05
5.22762e-05
1.04934e-05
-5.19336e-05
5.26637e-05
9.87139e-06
-5.23235e-05
5.29455e-05
9.33708e-06
-5.26585e-05
5.31928e-05
8.87279e-06
-5.29663e-05
5.34306e-05
8.46444e-06
-5.32599e-05
5.36683e-05
8.10081e-06
-5.35454e-05
5.3909e-05
7.77272e-06
-5.38248e-05
5.41528e-05
7.47245e-06
-5.40973e-05
5.43976e-05
7.19341e-06
-5.43607e-05
5.46397e-05
6.92997e-06
-5.46114e-05
5.48748e-05
6.67749e-06
-5.48448e-05
5.50973e-05
6.43244e-06
-5.50556e-05
5.53007e-05
6.19284e-06
-5.52378e-05
5.54774e-05
5.95888e-06
-5.53841e-05
5.56181e-05
5.73367e-06
-5.5485e-05
5.57102e-05
5.52299e-06
-5.55254e-05
5.5736e-05
5.33125e-06
-5.54815e-05
5.56733e-05
5.16377e-06
-5.53368e-05
5.55043e-05
-5.51759e-05
5.52176e-05
1.27265e-05
-3.5204e-05
1.21383e-05
-4.43576e-05
1.11883e-05
-4.78639e-05
1.01581e-05
-4.95412e-05
9.22818e-06
-5.04896e-05
8.41366e-06
-5.11191e-05
7.69315e-06
-5.1603e-05
7.04758e-06
-5.20129e-05
6.46263e-06
-5.23813e-05
5.92717e-06
-5.27244e-05
5.43227e-06
-5.30505e-05
4.97061e-06
-5.33631e-05
4.53606e-06
-5.36628e-05
4.1235e-06
-5.39481e-05
3.72867e-06
-5.42165e-05
3.34816e-06
-5.44643e-05
2.97952e-06
-5.4687e-05
2.62142e-06
-5.48797e-05
2.27396e-06
-5.50367e-05
1.93931e-06
-5.51503e-05
1.62464e-06
-5.52107e-05
1.34882e-06
-5.52057e-05
1.13205e-06
-5.51201e-05
-5.48998e-05
1.12041e-05
-3.57764e-05
1.03489e-05
-4.35023e-05
9.26709e-06
-4.67821e-05
8.19952e-06
-4.84737e-05
7.21633e-06
-4.95064e-05
6.32098e-06
-5.02237e-05
5.50072e-06
-5.07827e-05
4.74294e-06
-5.12552e-05
4.03719e-06
-5.16756e-05
3.37493e-06
-5.20622e-05
2.74917e-06
-5.24248e-05
2.1542e-06
-5.27681e-05
1.58533e-06
-5.30939e-05
1.03879e-06
-5.34016e-05
5.11692e-07
-5.36894e-05
2.01087e-09
-5.39546e-05
-4.91293e-07
-5.41937e-05
-9.68207e-07
-5.44028e-05
-1.42762e-06
-5.45773e-05
-1.86672e-06
-5.47112e-05
-2.27843e-06
-5.4799e-05
-2.64997e-06
-5.48342e-05
-2.98428e-06
-5.47858e-05
-5.45552e-05
9.27689e-06
-3.61835e-05
8.40796e-06
-4.26334e-05
7.32874e-06
-4.57029e-05
6.24206e-06
-4.7387e-05
5.20269e-06
-4.8467e-05
4.22456e-06
-4.92456e-05
3.30438e-06
-4.98626e-05
2.43484e-06
-5.03856e-05
1.60883e-06
-5.08496e-05
8.20158e-07
-5.12735e-05
6.36179e-08
-5.16682e-05
-6.65146e-07
-5.20394e-05
-1.36972e-06
-5.23893e-05
-2.05299e-06
-5.27183e-05
-2.71719e-06
-5.30252e-05
-3.36391e-06
-5.33079e-05
-3.99408e-06
-5.35635e-05
-4.60803e-06
-5.37889e-05
-5.20541e-06
-5.39799e-05
-5.78505e-06
-5.41316e-05
-6.34595e-06
-5.42381e-05
-6.8925e-06
-5.42876e-05
-7.43116e-06
-5.42471e-05
-5.41102e-05
7.37453e-06
-3.63609e-05
6.52461e-06
-4.17835e-05
5.43479e-06
-4.46131e-05
4.3092e-06
-4.62614e-05
3.20503e-06
-4.73628e-05
2.14093e-06
-4.81815e-05
1.11954e-06
-4.88412e-05
1.37836e-07
-4.94039e-05
-8.0838e-07
-4.99034e-05
-1.72319e-06
-5.03587e-05
-2.61032e-06
-5.07811e-05
-3.47299e-06
-5.11767e-05
-4.31398e-06
-5.15483e-05
-5.13563e-06
-5.18967e-05
-5.93982e-06
-5.2221e-05
-6.72801e-06
-5.25197e-05
-7.50124e-06
-5.27903e-05
-8.2601e-06
-5.303e-05
-9.00463e-06
-5.32353e-05
-9.73439e-06
-5.34018e-05
-1.0449e-05
-5.35235e-05
-1.11473e-05
-5.35893e-05
-1.18177e-05
-5.35768e-05
-5.35224e-05
5.58753e-06
-3.62979e-05
4.71275e-06
-4.09087e-05
3.59385e-06
-4.34942e-05
2.41588e-06
-4.50834e-05
1.23867e-06
-4.61856e-05
8.45884e-08
-4.70274e-05
-1.03995e-06
-4.77166e-05
-2.13438e-06
-4.83095e-05
-3.20051e-06
-4.88372e-05
-4.24075e-06
-4.93185e-05
-5.25756e-06
-4.97643e-05
-6.25323e-06
-5.0181e-05
-7.22987e-06
-5.05717e-05
-8.1893e-06
-5.09373e-05
-9.13308e-06
-5.12773e-05
-1.00624e-05
-5.15904e-05
-1.0978e-05
-5.18747e-05
-1.18801e-05
-5.21279e-05
-1.27681e-05
-5.23473e-05
-1.36407e-05
-5.25292e-05
-1.44957e-05
-5.26686e-05
-1.53284e-05
-5.27565e-05
-1.61265e-05
-5.27787e-05
-5.27966e-05
3.92944e-06
-3.60052e-05
2.99099e-06
-3.99702e-05
1.81975e-06
-4.23229e-05
5.75186e-07
-4.38389e-05
-6.83461e-07
-4.4927e-05
-1.93199e-06
-4.57789e-05
-3.16117e-06
-4.64875e-05
-4.36846e-06
-4.71022e-05
-5.55377e-06
-4.76519e-05
-6.7181e-06
-4.81541e-05
-7.86282e-06
-4.86196e-05
-8.98945e-06
-4.90544e-05
-1.00994e-05
-4.94617e-05
-1.11941e-05
-4.98426e-05
-1.22746e-05
-5.01968e-05
-1.33417e-05
-5.05233e-05
-1.43956e-05
-5.08208e-05
-1.54359e-05
-5.10876e-05
-1.64613e-05
-5.13219e-05
-1.74694e-05
-5.15211e-05
-1.84564e-05
-5.16815e-05
-1.94165e-05
-5.17964e-05
-2.03382e-05
-5.1857e-05
-5.1942e-05
2.39307e-06
-3.54969e-05
1.36289e-06
-3.89401e-05
1.19202e-07
-4.10792e-05
-1.20403e-06
-4.25156e-05
-2.55078e-06
-4.35802e-05
-3.89688e-06
-4.44328e-05
-5.23194e-06
-4.51524e-05
-6.55176e-06
-4.57824e-05
-7.85491e-06
-4.63488e-05
-9.14127e-06
-4.68678e-05
-1.04113e-05
-4.73495e-05
-1.16658e-05
-4.77999e-05
-1.29057e-05
-4.82218e-05
-1.41318e-05
-4.86165e-05
-1.53446e-05
-4.89839e-05
-1.65445e-05
-4.93234e-05
-1.77312e-05
-4.96341e-05
-1.89035e-05
-4.99153e-05
-2.00595e-05
-5.0166e-05
-2.11959e-05
-5.03848e-05
-2.23081e-05
-5.05693e-05
-2.33898e-05
-5.07147e-05
-2.44307e-05
-5.08161e-05
-5.09638e-05
9.66073e-07
-3.47839e-05
-1.73007e-07
-3.7801e-05
-1.50412e-06
-3.97481e-05
-2.91433e-06
-4.11054e-05
-4.35398e-06
-4.21406e-05
-5.79989e-06
-4.29869e-05
-7.2411e-06
-4.37112e-05
-8.6724e-06
-4.43511e-05
-1.00914e-05
-4.49298e-05
-1.1497e-05
-4.54622e-05
-1.2889e-05
-4.59575e-05
-1.42676e-05
-4.64213e-05
-1.5633e-05
-4.68564e-05
-1.69857e-05
-4.72639e-05
-1.83257e-05
-4.76439e-05
-1.96527e-05
-4.79963e-05
-2.0966e-05
-4.83208e-05
-2.22639e-05
-4.86174e-05
-2.35437e-05
-4.88862e-05
-2.48017e-05
-4.91268e-05
-2.60329e-05
-4.93381e-05
-2.72311e-05
-4.95164e-05
-2.83871e-05
-4.96601e-05
-4.9866e-05
-3.61317e-07
-3.38785e-05
-1.61902e-06
-3.65433e-05
-3.04624e-06
-3.83209e-05
-4.54938e-06
-3.96023e-05
-6.085e-06
-4.0605e-05
-7.63166e-06
-4.14402e-05
-9.17838e-06
-4.21645e-05
-1.07193e-05
-4.28101e-05
-1.22514e-05
-4.33977e-05
-1.37729e-05
-4.39407e-05
-1.52828e-05
-4.44475e-05
-1.6781e-05
-4.49232e-05
-1.8267e-05
-4.53703e-05
-1.97409e-05
-4.579e-05
-2.12022e-05
-4.61826e-05
-2.26503e-05
-4.65482e-05
-2.40838e-05
-4.68873e-05
-2.55006e-05
-4.72006e-05
-2.68976e-05
-4.74892e-05
-2.82707e-05
-4.77538e-05
-2.9615e-05
-4.79937e-05
-3.09247e-05
-4.82068e-05
-3.21916e-05
-4.83932e-05
-4.86526e-05
-1.59612e-06
-3.27916e-05
-2.97617e-06
-3.51632e-05
-4.5045e-06
-3.67926e-05
-6.10371e-06
-3.80031e-05
-7.73662e-06
-3.8972e-05
-9.38375e-06
-3.97931e-05
-1.10344e-05
-4.05139e-05
-1.26824e-05
-4.11621e-05
-1.43241e-05
-4.1756e-05
-1.59573e-05
-4.23075e-05
-1.75806e-05
-4.28242e-05
-1.91932e-05
-4.33106e-05
-2.07944e-05
-4.37691e-05
-2.23837e-05
-4.42008e-05
-2.39602e-05
-4.46061e-05
-2.55229e-05
-4.49855e-05
-2.70699e-05
-4.53402e-05
-2.85989e-05
-4.56717e-05
-3.01063e-05
-4.59817e-05
-3.15882e-05
-4.62719e-05
-3.30399e-05
-4.6542e-05
-3.44561e-05
-4.67906e-05
-3.58298e-05
-4.70194e-05
-4.73277e-05
-2.74329e-06
-3.15348e-05
-4.24523e-06
-3.36613e-05
-5.87623e-06
-3.51616e-05
-7.57251e-06
-3.63068e-05
-9.30244e-06
-3.72421e-05
-1.10485e-05
-3.80471e-05
-1.28004e-05
-3.87619e-05
-1.4552e-05
-3.94106e-05
-1.62992e-05
-4.00088e-05
-1.80395e-05
-4.05672e-05
-1.97711e-05
-4.10926e-05
-2.14926e-05
-4.15891e-05
-2.32031e-05
-4.20587e-05
-2.49015e-05
-4.25024e-05
-2.65867e-05
-4.29208e-05
-2.82572e-05
-4.3315e-05
-2.9911e-05
-4.36864e-05
-3.15453e-05
-4.40374e-05
-3.31566e-05
-4.43705e-05
-3.4741e-05
-4.46874e-05
-3.62943e-05
-4.49887e-05
-3.78119e-05
-4.52731e-05
-3.92881e-05
-4.55432e-05
-4.5896e-05
-3.80544e-06
-3.01207e-05
-5.42613e-06
-3.20406e-05
-7.15904e-06
-3.34287e-05
-8.95149e-06
-3.45144e-05
-1.07767e-05
-3.54169e-05
-1.26189e-05
-3.62048e-05
-1.44687e-05
-3.69122e-05
-1.63196e-05
-3.75596e-05
-1.81676e-05
-3.81608e-05
-2.00098e-05
-3.87251e-05
-2.18439e-05
-3.92585e-05
-2.36684e-05
-3.97646e-05
-2.54818e-05
-4.02452e-05
-2.72828e-05
-4.07013e-05
-2.907e-05
-4.11336e-05
-3.08415e-05
-4.15435e-05
-3.2595e-05
-4.19329e-05
-3.43277e-05
-4.23048e-05
-3.60361e-05
-4.2662e-05
-3.77168e-05
-4.30068e-05
-3.93659e-05
-4.33396e-05
-4.09797e-05
-4.36593e-05
-4.25535e-05
-4.39694e-05
-4.43626e-05
-4.78397e-06
-2.85613e-05
-6.51859e-06
-3.0306e-05
-8.3507e-06
-3.15965e-05
-1.02367e-05
-3.26283e-05
-1.2154e-05
-3.34996e-05
-1.40887e-05
-3.42701e-05
-1.60319e-05
-3.49691e-05
-1.79773e-05
-3.56142e-05
-1.99207e-05
-3.62174e-05
-2.18589e-05
-3.67868e-05
-2.37895e-05
-3.73279e-05
-2.57105e-05
-3.78436e-05
-2.76203e-05
-3.83355e-05
-2.95172e-05
-3.88045e-05
-3.13993e-05
-3.92515e-05
-3.32648e-05
-3.9678e-05
-3.5111e-05
-4.00867e-05
-3.69351e-05
-4.04807e-05
-3.87341e-05
-4.08631e-05
-4.05046e-05
-4.12363e-05
-4.22437e-05
-4.16005e-05
-4.39481e-05
-4.19549e-05
-4.56143e-05
-4.23032e-05
-4.27329e-05
-5.67964e-06
-2.6868e-05
-7.52201e-06
-2.84636e-05
-9.44902e-06
-2.96695e-05
-1.14246e-05
-3.06528e-05
-1.34296e-05
-3.14946e-05
-1.54521e-05
-3.22476e-05
-1.74834e-05
-3.29377e-05
-1.95177e-05
-3.35799e-05
-2.15505e-05
-3.41846e-05
-2.35785e-05
-3.47588e-05
-2.55991e-05
-3.53073e-05
-2.761e-05
-3.58327e-05
-2.96093e-05
-3.63362e-05
-3.15949e-05
-3.68188e-05
-3.3565e-05
-3.72814e-05
-3.55172e-05
-3.77258e-05
-3.7449e-05
-3.81549e-05
-3.93577e-05
-3.8572e-05
-4.12403e-05
-3.89804e-05
-4.30943e-05
-3.93823e-05
-4.49172e-05
-3.97777e-05
-4.67064e-05
-4.01657e-05
-4.84592e-05
-4.05504e-05
-4.10133e-05
-6.49275e-06
-2.50519e-05
-8.43558e-06
-2.65208e-05
-1.04518e-05
-2.76533e-05
-1.25116e-05
-2.8593e-05
-1.45991e-05
-2.94071e-05
-1.67036e-05
-3.01431e-05
-1.88173e-05
-3.08241e-05
-2.09342e-05
-3.1463e-05
-2.305e-05
-3.20687e-05
-2.51612e-05
-3.26476e-05
-2.72649e-05
-3.32036e-05
-2.93587e-05
-3.37389e-05
-3.14402e-05
-3.42547e-05
-3.35074e-05
-3.47516e-05
-3.55581e-05
-3.52308e-05
-3.75898e-05
-3.56941e-05
-3.96001e-05
-3.61446e-05
-4.15863e-05
-3.65858e-05
-4.3546e-05
-3.70208e-05
-4.54769e-05
-3.74513e-05
-4.73772e-05
-3.78774e-05
-4.92448e-05
-3.82981e-05
-5.10779e-05
-3.87173e-05
-3.92102e-05
-7.22344e-06
-2.31239e-05
-9.25835e-06
-2.44858e-05
-1.13569e-05
-2.55548e-05
-1.34946e-05
-2.64553e-05
-1.56582e-05
-2.72435e-05
-1.78384e-05
-2.79629e-05
-2.00279e-05
-2.86346e-05
-2.22208e-05
-2.927e-05
-2.44128e-05
-2.98768e-05
-2.66001e-05
-3.04603e-05
-2.87797e-05
-3.10239e-05
-3.0949e-05
-3.15696e-05
-3.31055e-05
-3.20982e-05
-3.52468e-05
-3.26103e-05
-3.73707e-05
-3.31069e-05
-3.94746e-05
-3.35901e-05
-4.15562e-05
-3.4063e-05
-4.3613e-05
-3.4529e-05
-4.56429e-05
-3.49908e-05
-4.76441e-05
-3.54502e-05
-4.9615e-05
-3.59066e-05
-5.15541e-05
-3.63589e-05
-5.34606e-05
-3.68109e-05
-3.73302e-05
-7.87168e-06
-2.10947e-05
-9.98921e-06
-2.23683e-05
-1.2162e-05
-2.3382e-05
-1.43703e-05
-2.42469e-05
-1.66031e-05
-2.50108e-05
-1.88521e-05
-2.57139e-05
-2.11103e-05
-2.63763e-05
-2.33722e-05
-2.70082e-05
-2.5633e-05
-2.7616e-05
-2.78891e-05
-2.82042e-05
-3.01371e-05
-2.87759e-05
-3.23744e-05
-2.93324e-05
-3.45982e-05
-2.98744e-05
-3.68061e-05
-3.04024e-05
-3.89956e-05
-3.09174e-05
-4.11643e-05
-3.14214e-05
-4.33099e-05
-3.19173e-05
-4.54304e-05
-3.24085e-05
-4.75237e-05
-3.28975e-05
-4.95884e-05
-3.33855e-05
-5.1623e-05
-3.3872e-05
-5.36259e-05
-3.4356e-05
-5.55966e-05
-3.48401e-05
-3.53784e-05
-8.43718e-06
-1.89753e-05
-1.06267e-05
-2.01788e-05
-1.28649e-05
-2.11438e-05
-1.51357e-05
-2.19761e-05
-1.743e-05
-2.27165e-05
-1.97404e-05
-2.34035e-05
-2.20601e-05
-2.40567e-05
-2.43833e-05
-2.46849e-05
-2.67055e-05
-2.52938e-05
-2.90228e-05
-2.5887e-05
-3.13316e-05
-2.6467e-05
-3.36291e-05
-2.70349e-05
-3.59125e-05
-2.75911e-05
-3.81791e-05
-2.81358e-05
-4.04265e-05
-2.867e-05
-4.26523e-05
-2.91955e-05
-4.48546e-05
-2.97151e-05
-4.70313e-05
-3.02318e-05
-4.91811e-05
-3.07477e-05
-5.13025e-05
-3.1264e-05
-5.33942e-05
-3.17803e-05
-5.54546e-05
-3.22957e-05
-5.74815e-05
-3.28132e-05
-3.33645e-05
-8.91883e-06
-1.67772e-05
-1.11689e-05
-1.79287e-05
-1.34629e-05
-1.88498e-05
-1.57875e-05
-1.96515e-05
-1.81355e-05
-2.03685e-05
-2.04996e-05
-2.10394e-05
-2.28731e-05
-2.16832e-05
-2.52501e-05
-2.23079e-05
-2.7626e-05
-2.29179e-05
-2.99966e-05
-2.35164e-05
-3.23584e-05
-2.41051e-05
-3.47083e-05
-2.4685e-05
-3.70433e-05
-2.5256e-05
-3.93608e-05
-2.58184e-05
-4.16582e-05
-2.63727e-05
-4.39332e-05
-2.69205e-05
-4.61842e-05
-2.74642e-05
-4.84095e-05
-2.80065e-05
-5.0608e-05
-2.85492e-05
-5.27787e-05
-2.90933e-05
-5.49208e-05
-2.96382e-05
-5.70329e-05
-3.01836e-05
-5.91129e-05
-3.07332e-05
-3.13012e-05
-9.31473e-06
-1.45069e-05
-1.16134e-05
-1.563e-05
-1.39527e-05
-1.65106e-05
-1.63227e-05
-1.72814e-05
-1.87163e-05
-1.79749e-05
-2.11263e-05
-1.86294e-05
-2.35458e-05
-1.92637e-05
-2.59688e-05
-1.98848e-05
-2.83905e-05
-2.04962e-05
-3.08067e-05
-2.11003e-05
-3.32136e-05
-2.16983e-05
-3.56079e-05
-2.22906e-05
-3.79867e-05
-2.28772e-05
-4.03471e-05
-2.3458e-05
-4.26867e-05
-2.40332e-05
-4.50031e-05
-2.4604e-05
-4.7295e-05
-2.51724e-05
-4.9561e-05
-2.57405e-05
-5.18004e-05
-2.63098e-05
-5.40127e-05
-2.6881e-05
-5.61973e-05
-2.74536e-05
-5.83534e-05
-2.80275e-05
-6.04807e-05
-2.86059e-05
-2.91964e-05
-9.62235e-06
-1.21537e-05
-1.19567e-05
-1.32957e-05
-1.433e-05
-1.41373e-05
-1.67372e-05
-1.48742e-05
-1.91692e-05
-1.55428e-05
-2.16176e-05
-1.6181e-05
-2.40753e-05
-1.6806e-05
-2.65365e-05
-1.74236e-05
-2.89961e-05
-1.80366e-05
-3.14499e-05
-1.86465e-05
-3.38939e-05
-1.92542e-05
-3.63248e-05
-1.98597e-05
-3.87395e-05
-2.04625e-05
-4.11351e-05
-2.10624e-05
-4.35091e-05
-2.16591e-05
-4.58595e-05
-2.22536e-05
-4.81847e-05
-2.28471e-05
-5.0484e-05
-2.34412e-05
-5.27567e-05
-2.40371e-05
-5.50027e-05
-2.4635e-05
-5.72216e-05
-2.52347e-05
-5.9413e-05
-2.58361e-05
-6.15774e-05
-2.64416e-05
-2.70566e-05
-9.83658e-06
-9.74682e-06
-1.219e-05
-1.09422e-05
-1.45894e-05
-1.1738e-05
-1.70272e-05
-1.24363e-05
-1.9491e-05
-1.3079e-05
-2.19708e-05
-1.37012e-05
-2.44595e-05
-1.43174e-05
-2.6951e-05
-1.4932e-05
-2.94406e-05
-1.5547e-05
-3.19238e-05
-1.61633e-05
-3.43969e-05
-1.67811e-05
-3.68564e-05
-1.74002e-05
-3.92992e-05
-1.80198e-05
-4.17222e-05
-1.86393e-05
-4.41231e-05
-1.92583e-05
-4.64998e-05
-1.9877e-05
-4.88509e-05
-2.0496e-05
-5.11758e-05
-2.11163e-05
-5.34742e-05
-2.17387e-05
-5.5746e-05
-2.23632e-05
-5.79909e-05
-2.29897e-05
-6.02087e-05
-2.36183e-05
-6.23999e-05
-2.42504e-05
-2.48898e-05
-9.91066e-06
-7.62489e-06
-1.22985e-05
-8.55443e-06
-1.47257e-05
-9.31078e-06
-1.71904e-05
-9.97163e-06
-1.96799e-05
-1.05895e-05
-2.21841e-05
-1.1197e-05
-2.46962e-05
-1.18053e-05
-2.72106e-05
-1.24177e-05
-2.97222e-05
-1.30354e-05
-3.22269e-05
-1.36587e-05
-3.47209e-05
-1.42871e-05
-3.72009e-05
-1.49202e-05
-3.96637e-05
-1.55569e-05
-4.21064e-05
-1.61966e-05
-4.45264e-05
-1.68383e-05
-4.69217e-05
-1.74817e-05
-4.9291e-05
-1.81267e-05
-5.16338e-05
-1.87736e-05
-5.39499e-05
-1.94226e-05
-5.62392e-05
-2.00739e-05
-5.85017e-05
-2.07273e-05
-6.07372e-05
-2.13828e-05
-6.29461e-05
-2.20415e-05
-2.27051e-05
-5.85753e-07
5.85753e-07
-2.01659e-06
1.43084e-06
-3.73533e-06
1.71873e-06
-5.33444e-06
1.59911e-06
-6.675e-06
1.34057e-06
3.1794e-07
-6.99294e-06
-9.13798e-07
1.49955e-06
-2.38947e-06
2.90652e-06
-3.90383e-06
3.23308e-06
-5.2603e-06
2.95558e-06
-6.40139e-06
2.48167e-06
1.13311e-06
-7.21656e-06
-1.00272e-06
2.50227e-06
-2.36911e-06
4.2729e-06
-3.72485e-06
4.58882e-06
-4.98226e-06
4.21299e-06
-6.09263e-06
3.59203e-06
2.23001e-06
-7.18953e-06
-1.0375e-06
3.53977e-06
-2.26247e-06
5.49787e-06
-3.48853e-06
5.81488e-06
-4.67026e-06
5.39472e-06
-5.79105e-06
4.71283e-06
3.45473e-06
-7.01577e-06
-1.02803e-06
4.56781e-06
-2.10826e-06
6.5781e-06
-3.21628e-06
6.9229e-06
-4.33622e-06
6.51465e-06
-5.4683e-06
5.84491e-06
4.7388e-06
-6.75237e-06
-9.74843e-07
5.54265e-06
-1.91784e-06
7.5211e-06
-2.91351e-06
7.91857e-06
-3.97272e-06
7.57386e-06
-5.10175e-06
6.97395e-06
6.0455e-06
-6.40845e-06
-8.88813e-07
6.43146e-06
-1.69739e-06
8.32968e-06
-2.58152e-06
8.8027e-06
-3.57353e-06
8.56587e-06
-4.6816e-06
8.08201e-06
7.34693e-06
-5.98302e-06
-7.77344e-07
7.20881e-06
-1.45082e-06
9.00316e-06
-2.22019e-06
9.57207e-06
-3.13414e-06
9.47981e-06
-4.20186e-06
9.14974e-06
8.61955e-06
-5.47448e-06
-6.4482e-07
7.85363e-06
-1.18066e-06
9.539e-06
-1.82915e-06
1.02206e-05
-2.6513e-06
1.0302e-05
-3.65865e-06
1.01571e-05
9.84237e-06
-4.88148e-06
-4.94954e-07
8.34858e-06
-8.88983e-07
9.93303e-06
-1.40842e-06
1.074e-05
-2.123e-06
1.10166e-05
-3.04907e-06
1.10832e-05
1.09958e-05
-4.20247e-06
-3.31008e-07
8.67959e-06
-5.78336e-07
1.01804e-05
-9.58786e-07
1.11204e-05
-1.54834e-06
1.16061e-05
-2.37121e-06
1.1906e-05
1.20605e-05
-3.43591e-06
-1.55895e-07
8.83548e-06
-2.51922e-07
1.02764e-05
-4.8208e-07
1.13506e-05
-9.27642e-07
1.20517e-05
-1.62414e-06
1.26025e-05
1.30166e-05
-2.58026e-06
2.84662e-08
8.80702e-06
8.64065e-08
1.02184e-05
1.91486e-08
1.14179e-05
-2.62546e-07
1.23334e-05
-8.0792e-07
1.31479e-05
1.38428e-05
-1.63412e-06
2.13001e-07
8.59402e-06
4.33753e-07
9.99769e-06
5.39966e-07
1.13116e-05
4.43861e-07
1.24295e-05
7.62197e-08
1.35155e-05
1.45155e-05
-5.96447e-07
3.99313e-07
8.1947e-06
7.83746e-07
9.61326e-06
1.07522e-06
1.10202e-05
1.18633e-06
1.23184e-05
1.02553e-06
1.36763e-05
1.50076e-05
5.33411e-07
5.81234e-07
7.61347e-06
1.13038e-06
9.06411e-06
1.61656e-06
1.0534e-05
1.95666e-06
1.19783e-05
2.03475e-06
1.35982e-05
1.52869e-05
1.75543e-06
7.53029e-07
6.86044e-06
1.46535e-06
8.35179e-06
2.15302e-06
9.84632e-06
2.74284e-06
1.13884e-05
3.09447e-06
1.32466e-05
1.5315e-05
3.06636e-06
9.07495e-07
5.95294e-06
1.77799e-06
7.4813e-06
2.67007e-06
8.95424e-06
3.52789e-06
1.05306e-05
4.18967e-06
1.25848e-05
1.50456e-05
4.45911e-06
1.03468e-06
4.91827e-06
2.05441e-06
6.46157e-06
3.14814e-06
7.86051e-06
4.28793e-06
9.39083e-06
5.29741e-06
1.15753e-05
1.4422e-05
5.92098e-06
1.12048e-06
3.79779e-06
2.2764e-06
5.30565e-06
3.56155e-06
6.57536e-06
4.99084e-06
7.96153e-06
6.38252e-06
1.01837e-05
1.33727e-05
7.43184e-06
1.1465e-06
2.65129e-06
2.4202e-06
4.03195e-06
3.8785e-06
5.11706e-06
5.59451e-06
6.24552e-06
7.39437e-06
8.3838e-06
1.17978e-05
8.96926e-06
1.0946e-06
1.55669e-06
2.45799e-06
2.66856e-06
4.0616e-06
3.51345e-06
6.04507e-06
4.26204e-06
8.26738e-06
6.1615e-06
9.52158e-06
1.05436e-05
9.49054e-07
6.07638e-07
2.35048e-06
1.26713e-06
4.05982e-06
1.80412e-06
6.24485e-06
2.07702e-06
8.91715e-06
3.4892e-06
6.0545e-06
1.23842e-05
6.07638e-07
1.87476e-06
3.67888e-06
5.7559e-06
9.24509e-06
1.52996e-05
-9.84484e-06
-4.77299e-06
-1.22833e-05
-6.11595e-06
-1.47377e-05
-6.8564e-06
-1.72266e-05
-7.48274e-06
-1.97358e-05
-8.08036e-06
-2.22572e-05
-8.67558e-06
-2.4785e-05
-9.27741e-06
-2.73141e-05
-9.88857e-06
-2.98398e-05
-1.05098e-05
-3.23578e-05
-1.11406e-05
-3.48647e-05
-1.17803e-05
-3.73571e-05
-1.24278e-05
-3.98319e-05
-1.30821e-05
-4.22862e-05
-1.37422e-05
-4.47175e-05
-1.4407e-05
-4.71236e-05
-1.50755e-05
-4.95034e-05
-1.57469e-05
-5.18561e-05
-1.64208e-05
-5.41818e-05
-1.70969e-05
-5.64804e-05
-1.77752e-05
-5.8752e-05
-1.84557e-05
-6.09963e-05
-1.91384e-05
-6.32141e-05
-1.98237e-05
-2.05116e-05
-9.66418e-06
-2.32538e-06
-1.21537e-05
-3.62639e-06
-1.46361e-05
-4.37403e-06
-1.71406e-05
-4.97824e-06
-1.96609e-05
-5.56006e-06
-2.2191e-05
-6.14546e-06
-2.47262e-05
-6.74223e-06
-2.72617e-05
-7.35305e-06
-2.9793e-05
-7.97844e-06
-3.23162e-05
-8.61747e-06
-3.48277e-05
-9.26883e-06
-3.73242e-05
-9.93121e-06
-3.98029e-05
-1.06034e-05
-4.22609e-05
-1.12843e-05
-4.46956e-05
-1.19724e-05
-4.71047e-05
-1.26664e-05
-4.9487e-05
-1.33646e-05
-5.18419e-05
-1.4066e-05
-5.41691e-05
-1.47697e-05
-5.64688e-05
-1.54755e-05
-5.8741e-05
-1.61835e-05
-6.09854e-05
-1.6894e-05
-6.32028e-05
-1.76063e-05
-1.83183e-05
-9.49706e-06
-1.78543e-08
-1.19507e-05
-1.17278e-06
-1.4433e-05
-1.89166e-06
-1.69383e-05
-2.473e-06
-1.94584e-05
-3.03993e-06
-2.19875e-05
-3.61636e-06
-2.4521e-05
-4.20879e-06
-2.70541e-05
-4.81993e-06
-2.95825e-05
-5.45004e-06
-3.21022e-05
-6.09772e-06
-3.46099e-05
-6.76115e-06
-3.71024e-05
-7.43871e-06
-3.95768e-05
-8.12899e-06
-4.20304e-05
-8.8307e-06
-4.44605e-05
-9.54234e-06
-4.68648e-05
-1.0262e-05
-4.92418e-05
-1.09876e-05
-5.15907e-05
-1.17171e-05
-5.39113e-05
-1.24491e-05
-5.62036e-05
-1.31832e-05
-5.84677e-05
-1.39194e-05
-6.07037e-05
-1.4658e-05
-6.29124e-05
-1.53976e-05
-1.61345e-05
-9.26938e-06
2.23576e-06
-1.16731e-05
1.23098e-06
-1.41332e-05
5.68391e-07
-1.66233e-05
1.7135e-08
-1.91309e-05
-5.32335e-07
-2.16485e-05
-1.09874e-06
-2.41707e-05
-1.68665e-06
-2.66924e-05
-2.29826e-06
-2.9209e-05
-2.93337e-06
-3.17168e-05
-3.58997e-06
-3.42122e-05
-4.26572e-06
-3.66923e-05
-4.95862e-06
-3.91542e-05
-5.66706e-06
-4.15953e-05
-6.38966e-06
-4.40128e-05
-7.12482e-06
-4.64045e-05
-7.87036e-06
-4.87685e-05
-8.6236e-06
-5.11037e-05
-9.38184e-06
-5.34097e-05
-1.01431e-05
-5.56866e-05
-1.09063e-05
-5.79344e-05
-1.16716e-05
-6.01531e-05
-1.24392e-05
-6.23438e-05
-1.32069e-05
-1.39692e-05
-8.95964e-06
4.44303e-06
-1.13122e-05
3.58355e-06
-1.37357e-05
2.99184e-06
-1.6197e-05
2.47847e-06
-1.86802e-05
1.95084e-06
-2.11758e-05
1.39686e-06
-2.36769e-05
8.14524e-07
-2.6178e-05
2.02787e-07
-2.86741e-05
-4.37251e-07
-3.11612e-05
-1.10283e-06
-3.3636e-05
-1.79101e-06
-3.60953e-05
-2.49931e-06
-3.85364e-05
-3.22589e-06
-4.09568e-05
-3.96926e-06
-4.33539e-05
-4.72778e-06
-4.57251e-05
-5.49915e-06
-4.80684e-05
-6.28031e-06
-5.03823e-05
-7.06792e-06
-5.26661e-05
-7.85926e-06
-5.49196e-05
-8.65283e-06
-5.71427e-05
-9.44852e-06
-5.93354e-05
-1.02465e-05
-6.14988e-05
-1.10436e-05
-1.18312e-05
-8.56276e-06
6.59734e-06
-1.08609e-05
5.88164e-06
-1.32377e-05
5.36866e-06
-1.56591e-05
4.89985e-06
-1.81071e-05
4.39891e-06
-2.05707e-05
3.8604e-06
-2.30414e-05
3.28522e-06
-2.55127e-05
2.67412e-06
-2.79795e-05
2.02952e-06
-3.04374e-05
1.3551e-06
-3.2883e-05
6.54571e-07
-3.53132e-05
-6.90812e-08
-3.77254e-05
-8.13679e-07
-4.01171e-05
-1.5776e-06
-4.24856e-05
-2.3592e-06
-4.48286e-05
-3.15618e-06
-4.71436e-05
-3.96531e-06
-4.94288e-05
-4.78277e-06
-5.16829e-05
-5.60516e-06
-5.39053e-05
-6.43037e-06
-5.60958e-05
-7.25802e-06
-5.8254e-05
-8.0884e-06
-6.03793e-05
-8.91824e-06
-9.72808e-06
-8.07562e-06
8.68993e-06
-1.03141e-05
8.12015e-06
-1.26365e-05
7.69102e-06
-1.50088e-05
7.27215e-06
-1.74124e-05
6.80251e-06
-1.98345e-05
6.28255e-06
-2.22656e-05
5.71633e-06
-2.46984e-05
5.10691e-06
-2.71272e-05
4.45832e-06
-2.95475e-05
3.7754e-06
-3.19557e-05
3.06269e-06
-3.43486e-05
2.32383e-06
-3.67236e-05
1.56139e-06
-3.90784e-05
7.77187e-07
-4.14105e-05
-2.7138e-08
-4.37173e-05
-8.4939e-07
-4.59962e-05
-1.68635e-06
-4.8245e-05
-2.53398e-06
-5.04619e-05
-3.38831e-06
-5.26456e-05
-4.24659e-06
-5.47956e-05
-5.10807e-06
-5.69108e-05
-5.97318e-06
-5.89896e-05
-6.83949e-06
-7.66608e-06
-7.4958e-06
1.07113e-05
-9.66846e-06
1.02928e-05
-1.19299e-05
9.95245e-06
-1.42456e-05
9.58786e-06
-1.65965e-05
9.15345e-06
-1.89688e-05
8.65477e-06
-2.13517e-05
8.09929e-06
-2.37375e-05
7.49269e-06
-2.612e-05
6.84082e-06
-2.84944e-05
6.14982e-06
-3.08569e-05
5.4252e-06
-3.32044e-05
4.6713e-06
-3.55342e-05
3.8912e-06
-3.7844e-05
3.08697e-06
-4.01314e-05
2.26027e-06
-4.23939e-05
1.41312e-06
-4.46288e-05
5.48547e-07
-4.68334e-05
-3.2941e-07
-4.90053e-05
-1.21642e-06
-5.11428e-05
-2.10909e-06
-5.32447e-05
-3.00616e-06
-5.531e-05
-3.90783e-06
-5.7339e-05
-4.81048e-06
-5.65573e-06
-6.82103e-06
1.26508e-05
-8.92134e-06
1.23931e-05
-1.11162e-05
1.21473e-05
-1.33692e-05
1.18409e-05
-1.56604e-05
1.14446e-05
-1.7975e-05
1.09694e-05
-2.03019e-05
1.04262e-05
-2.26327e-05
9.82346e-06
-2.49609e-05
9.169e-06
-2.72814e-05
8.47037e-06
-2.95904e-05
7.73413e-06
-3.18845e-05
6.9654e-06
-3.41611e-05
6.16781e-06
-3.64179e-05
5.34375e-06
-3.86526e-05
4.49497e-06
-4.08627e-05
3.62331e-06
-4.30457e-05
2.73147e-06
-4.51984e-05
1.82329e-06
-4.7318e-05
9.03262e-07
-4.94025e-05
-2.46525e-08
-5.14502e-05
-9.58453e-07
-5.34604e-05
-1.89761e-06
-5.54337e-05
-2.83721e-06
-3.71e-06
-6.04904e-06
1.44974e-05
-8.07059e-06
1.44147e-05
-1.01941e-05
1.42708e-05
-1.23794e-05
1.40261e-05
-1.46049e-05
1.36702e-05
-1.68553e-05
1.32198e-05
-1.91189e-05
1.26899e-05
-2.13872e-05
1.20918e-05
-2.36535e-05
1.14353e-05
-2.59126e-05
1.07294e-05
-2.81603e-05
9.98183e-06
-3.03933e-05
9.19845e-06
-3.2609e-05
8.38351e-06
-3.48051e-05
7.5398e-06
-3.69793e-05
6.66919e-06
-3.91294e-05
5.77341e-06
-4.12527e-05
4.8548e-06
-4.33462e-05
3.91679e-06
-4.54068e-05
2.96379e-06
-4.74315e-05
2.00012e-06
-4.94184e-05
1.02847e-06
-5.13661e-05
5.00914e-08
-5.32741e-05
-9.29287e-07
-1.83391e-06
-5.17748e-06
1.6239e-05
-7.11406e-06
1.63513e-05
-9.16239e-06
1.63191e-05
-1.12762e-05
1.614e-05
-1.34314e-05
1.58253e-05
-1.56119e-05
1.54002e-05
-1.7806e-05
1.4884e-05
-2.0005e-05
1.42908e-05
-2.22023e-05
1.36326e-05
-2.43925e-05
1.29197e-05
-2.65717e-05
1.21609e-05
-2.87363e-05
1.1363e-05
-3.08836e-05
1.05309e-05
-3.30115e-05
9.66768e-06
-3.51178e-05
8.77549e-06
-3.72004e-05
7.85597e-06
-3.92567e-05
6.91112e-06
-4.12838e-05
5.94387e-06
-4.32782e-05
4.95822e-06
-4.52366e-05
3.95854e-06
-4.71561e-05
2.94797e-06
-4.90344e-05
1.92839e-06
-5.08699e-05
9.06243e-07
-3.40266e-08
-4.20376e-06
1.78625e-05
-6.04937e-06
1.81969e-05
-8.01978e-06
1.82895e-05
-1.00599e-05
1.81801e-05
-1.21416e-05
1.7907e-05
-1.42477e-05
1.75064e-05
-1.63668e-05
1.70031e-05
-1.84904e-05
1.64144e-05
-2.06121e-05
1.57543e-05
-2.27268e-05
1.50344e-05
-2.48303e-05
1.42645e-05
-2.69194e-05
1.34521e-05
-2.89913e-05
1.26028e-05
-3.10439e-05
1.17202e-05
-3.30751e-05
1.08067e-05
-3.50829e-05
9.86379e-06
-3.7065e-05
8.89321e-06
-3.90185e-05
7.89734e-06
-4.09398e-05
6.87957e-06
-4.28252e-05
5.84391e-06
-4.46709e-05
4.79364e-06
-4.64735e-05
3.73107e-06
-4.82305e-05
2.66318e-06
1.68291e-06
-3.12518e-06
1.93535e-05
-4.8739e-06
1.99456e-05
-6.76476e-06
2.01804e-05
-8.73054e-06
2.01459e-05
-1.07371e-05
1.99136e-05
-1.27659e-05
1.95352e-05
-1.48058e-05
1.90429e-05
-1.68488e-05
1.84574e-05
-1.8889e-05
1.77945e-05
-2.09216e-05
1.7067e-05
-2.29429e-05
1.62857e-05
-2.49496e-05
1.54588e-05
-2.69393e-05
1.45924e-05
-2.89096e-05
1.36906e-05
-3.08588e-05
1.27559e-05
-3.27849e-05
1.17899e-05
-3.46858e-05
1.07941e-05
-3.65586e-05
9.77019e-06
-3.84e-05
8.72092e-06
-4.02057e-05
7.64961e-06