/*--------------------------------*- C++ -*----------------------------------*\
  =========                 |
  \\      /  F ield         | OpenFOAM: The Open Source CFD Toolbox
   \\    /   O peration     | Website:  https://openfoam.org
    \\  /    A nd           | Version:  11
     \\/     M anipulation  |
\*---------------------------------------------------------------------------*/
FoamFile
{
    format      ascii;
    class       surfaceVectorField;
    location    "0.74";
    object      Uf;
}
// * * * * * * * * * * * * * * * * * * * * * * * * * * * * * * * * * * * * * //

dimensions      [0 1 -1 0 0 0 0];

internalField   nonuniform List<vector> 
5640
(
(-0.0514451 -0.0681078 9.56113e-20)
(-0.0527665 -0.0657348 1.22862e-19)
(-0.0471981 -0.0210846 1.07534e-19)
(-0.0470644 -0.0509713 1.02347e-19)
(-0.041089 0.129836 -5.54446e-21)
(-0.0229019 0.0616643 -7.00057e-20)
(0.0114469 0.31276 4.94082e-20)
(-0.00628895 0.273668 -4.06476e-21)
(0.0920157 0.670161 5.64544e-20)
(0.0819182 0.462283 6.78713e-21)
(0.201976 0.945848 0)
(0.461398 1.19078 -2.56958e-22)
(-0.0483916 -0.0561491 1.30823e-19)
(-0.0590215 -0.0696009 1.57043e-20)
(-0.0181269 0.0246224 -6.78844e-20)
(-0.0286574 -0.0193739 7.91197e-21)
(0.0182986 0.180828 -7.00163e-20)
(0.0222331 0.108595 8.50104e-21)
(0.0805194 0.397192 -4.64439e-20)
(0.0694237 0.308499 -1.34741e-19)
(0.212152 0.653192 -4.89291e-20)
(0.188987 0.520897 8.68515e-20)
(0.354501 0.827838 -1.25246e-20)
(0.54398 0.977069 1.46747e-20)
(-0.0406902 -0.0398331 -1.06876e-19)
(-0.0623037 -0.0664498 -1.0332e-19)
(0.0114005 0.058214 8.38286e-20)
(-0.00916576 0.00760087 -9.52736e-21)
(0.0748407 0.21488 -4.95455e-20)
(0.0639744 0.141138 9.15512e-20)
(0.168946 0.425686 -3.84034e-21)
(0.139812 0.329067 -3.07057e-20)
(0.323312 0.650598 1.2939e-19)
(0.276937 0.537072 5.75187e-20)
(0.45568 0.766425 -3.92581e-20)
(0.590389 0.876204 -4.02368e-21)
(-0.0325579 -0.0260453 -1.13829e-20)
(-0.0640791 -0.0595227 -1.62717e-20)
(0.0403907 0.084293 -6.1377e-21)
(0.010267 0.0296392 -3.01084e-20)
(0.1271 0.239077 1.17245e-19)
(0.10177 0.165363 -2.13485e-19)
(0.241937 0.435712 2.71367e-20)
(0.201402 0.342394 1.2869e-19)
(0.404081 0.630931 -1.10533e-19)
(0.348565 0.534659 -2.66489e-19)
(0.524047 0.710008 1.40832e-21)
(0.628278 0.792612 4.01873e-21)
(-0.0250606 -0.011244 -3.45233e-20)
(-0.0648081 -0.0499066 -1.0423e-18)
(0.0673381 0.104409 -2.29871e-19)
(0.028205 0.0469439 -9.75488e-21)
(0.173141 0.25595 -2.136e-19)
(0.135302 0.182876 1.15003e-20)
(0.302415 0.436543 -1.54048e-19)
(0.253495 0.35002 -2.3867e-20)
(0.464269 0.602392 -1.60969e-19)
(0.405124 0.522287 -3.44015e-19)
(0.570348 0.656898 3.17926e-19)
(0.654755 0.719495 -1.84311e-20)
(-0.016945 0.000867431 -1.07742e-18)
(-0.064376 -0.0418522 -1.96018e-20)
(0.0913442 0.119168 2.31075e-19)
(0.0442075 0.0597611 0)
(0.212326 0.266453 2.02932e-19)
(0.164487 0.194401 2.41345e-19)
(0.351214 0.431252 -2.04246e-19)
(0.296485 0.352462 -9.63188e-20)
(0.507736 0.571384 1.19248e-19)
(0.449079 0.504183 2.08355e-19)
(0.601131 0.609214 3.36964e-20)
(0.671641 0.657191 4.53706e-19)
(-0.00916158 0.009517 1.05731e-18)
(-0.0629741 -0.0362499 1.01521e-18)
(0.112128 0.128924 0)
(0.0581107 0.0683197 0)
(0.245094 0.271276 -4.64984e-20)
(0.189327 0.200637 4.17111e-19)
(0.389677 0.421638 3.08341e-19)
(0.331426 0.349976 3.98882e-19)
(0.538949 0.539838 1.27311e-19)
(0.482367 0.483353 4.13735e-20)
(0.621209 0.566109 -5.77444e-19)
(0.681919 0.603741 -6.82386e-19)
(-0.0020539 0.014874 1.64715e-20)
(-0.0607696 -0.0333332 9.943e-19)
(0.129686 0.134151 3.99362e-19)
(0.069797 0.0729876 0)
(0.271977 0.271174 8.60629e-19)
(0.209865 0.202276 -5.9442e-19)
(0.41948 0.408796 1.42456e-19)
(0.359394 0.343211 -3.47164e-19)
(0.560926 0.509021 -6.48546e-19)
(0.506863 0.461315 -2.84984e-19)
(0.633633 0.527022 -3.24685e-19)
(0.687317 0.55726 -1.24188e-19)
(0.00430406 0.0171112 1.03519e-18)
(-0.0580244 -0.032892 -1.03924e-18)
(0.144032 0.135397 -9.68659e-19)
(0.0791822 0.0742548 -1.84215e-20)
(0.293435 0.267005 -1.81532e-18)
(0.226176 0.199983 -9.22473e-19)
(0.442151 0.393498 -7.75683e-19)
(0.381147 0.333099 -4.45297e-19)
(0.575844 0.479433 3.92386e-20)
(0.524361 0.438666 3.67023e-19)
(0.640444 0.491349 2.58676e-19)
(0.688961 0.516253 -3.347e-21)
(0.00972493 0.016699 -2.1522e-18)
(-0.0550511 -0.034487 -1.04031e-18)
(0.155165 0.133259 6.61664e-20)
(0.0861503 0.0726635 -1.84215e-20)
(0.309818 0.259569 4.31008e-19)
(0.238341 0.194372 5.68433e-19)
(0.458765 0.376435 6.75209e-19)
(0.397209 0.320468 2.99846e-19)
(0.585321 0.451001 5.88627e-19)
(0.536223 0.415709 3.67692e-19)
(0.643118 0.458252 2.6129e-19)
(0.687833 0.479263 2.43696e-19)
(0.0139257 0.0142073 1.03409e-18)
(-0.0521677 -0.0375867 9.77682e-19)
(0.163041 0.128314 4.58713e-19)
(0.0905466 0.0687234 3.71758e-20)
(0.321368 0.24952 4.48012e-19)
(0.246416 0.185975 4.48892e-19)
(0.470129 0.35803 -8.86878e-21)
(0.407971 0.305789 -4.89273e-20)
(0.590721 0.42323 4.29057e-20)
(0.54332 0.392436 1.21481e-19)
(0.642872 0.427143 -1.3264e-19)
(0.68457 0.445313 -2.63454e-19)
(0.0168228 0.00995769 3.50311e-20)
(-0.0497135 -0.0416849 9.91803e-19)
(0.167598 0.121018 1.01291e-20)
(0.092236 0.0628918 7.45466e-20)
(0.328453 0.237065 -3.12284e-20)
(0.25034 0.175168 -1.20427e-19)
(0.476792 0.338635 7.73486e-20)
(0.413901 0.28929 5.11346e-20)
(0.592233 0.396718 -5.01055e-20)
(0.546595 0.368948 7.95798e-20)
(0.64017 0.39729 1.99942e-19)
(0.679647 0.413509 1.43847e-19)
(0.0181643 0.00446181 1.08424e-18)
(-0.0480038 -0.0462783 -1.4975e-21)
(0.168728 0.111756 -4.70075e-20)
(0.0910729 0.0555442 3.73707e-20)
(0.331121 0.222566 -4.48507e-20)
(0.250058 0.162209 3.96991e-19)
(0.479355 0.318108 5.25682e-20)
(0.415257 0.270944 1.51205e-19)
(0.591076 0.370282 3.24609e-19)
(0.546428 0.345013 -1.65459e-19)
(0.63563 0.368294 1.34086e-19)
(0.673475 0.383128 3.51601e-19)
(0.017554 -0.00171412 -1.05056e-18)
(-0.0473373 -0.0508204 -9.93254e-19)
(0.166302 0.100814 4.66477e-19)
(0.0868819 0.0469557 3.80332e-20)
(0.329436 0.206078 6.00359e-19)
(0.245469 0.147231 -3.46793e-20)
(0.478088 0.29633 -5.88652e-20)
(0.412149 0.250656 1.00071e-19)
(0.587441 0.343895 -3.60658e-19)
(0.543173 0.320388 -1.65459e-19)
(0.629631 0.33971 -1.32581e-19)
(0.666317 0.353727 -4.38322e-19)
(0.0148055 -0.00823008 3.5839e-20)
(-0.0480499 -0.0547675 0)
(0.16017 0.0883584 -4.59433e-19)
(0.0795015 0.0373446 6.16305e-19)
(0.323376 0.187564 -5.39561e-19)
(0.236437 0.130283 -4.90847e-19)
(0.473144 0.273098 0)
(0.404536 0.228254 0)
(0.581619 0.317193 6.42379e-20)
(0.537036 0.294722 0)
(0.622468 0.311106 -6.62727e-22)
(0.658383 0.324879 2.46134e-19)
(0.00967277 -0.014731 5.4491e-19)
(-0.0505111 -0.057581 1.55948e-20)
(0.150161 0.0744989 6.31911e-19)
(0.0687879 0.0268756 5.58361e-19)
(0.312818 0.166929 3.21314e-20)
(0.22279 0.111363 -3.14645e-20)
(0.464526 0.248113 0)
(0.392192 0.203498 1.07775e-21)
(0.573798 0.289757 -6.48847e-20)
(0.528043 0.267563 4.37128e-20)
(0.614387 0.282029 -6.64784e-20)
(0.649853 0.296181 -1.07342e-19)
(0.00187217 -0.0209165 -2.25407e-21)
(-0.0550328 -0.0587932 1.55948e-20)
(0.136093 0.059298 -8.06367e-20)
(0.0546506 0.0156621 -1.29275e-18)
(0.297523 0.144032 -6.48014e-20)
(0.204335 0.0904621 -1.26182e-19)
(0.452032 0.220984 4.33039e-20)
(0.374664 0.176098 4.84196e-19)
(0.564028 0.261073 4.47607e-20)
(0.515987 0.238334 -3.08046e-19)
(0.605596 0.251966 0)
(0.640888 0.267219 0)
(-0.00880617 -0.0267146 -1.19955e-18)
(-0.0608861 -0.0584969 -1.46123e-20)
(0.117819 0.0427981 -1.38809e-18)
(0.0371909 0.00375946 -6.24497e-19)
(0.277135 0.118706 3.99461e-19)
(0.18087 0.0676058 -6.36361e-20)
(0.435203 0.191226 1.54767e-19)
(0.351229 0.145732 1.01923e-19)
(0.5522 0.230523 -3.60191e-19)
(0.50032 0.206296 -4.02608e-20)
(0.596253 0.220264 0)
(0.631649 0.237547 0)
(-0.0209933 -0.0319202 5.95963e-19)
(-0.0656319 -0.0574924 -5.32172e-20)
(0.0953446 0.0250597 6.76462e-19)
(0.0170636 -0.00865576 6.69559e-19)
(0.251179 0.0908138 -3.68799e-19)
(0.152237 0.0429319 -2.66417e-19)
(0.413238 0.158294 -8.79045e-20)
(0.320837 0.112104 -3.81694e-19)
(0.537994 0.197406 3.19615e-19)
(0.480029 0.170464 1.72852e-19)
(0.586465 0.186002 -1.11616e-19)
(0.62234 0.206686 2.83903e-19)
(-0.0325965 -0.0369874 -2.12574e-20)
(-0.0681805 -0.055846 -6.32174e-20)
(0.0690989 0.00638525 -2.33492e-19)
(-0.00438131 -0.0210325 -2.99023e-19)
(0.219057 0.0603519 -2.75418e-19)
(0.11835 0.0168498 7.5385e-21)
(0.384911 0.121547 -1.35375e-19)
(0.282056 0.0749894 2.27547e-19)
(0.520768 0.160734 -2.55171e-19)
(0.453319 0.129537 4.93409e-20)
(0.57622 0.147864 1.85344e-19)
(0.613122 0.174009 -6.31836e-19)
(-0.0435825 -0.0414626 -3.27326e-19)
(-0.0689793 -0.052913 -4.62814e-19)
(0.0399517 -0.012484 -7.08284e-20)
(-0.0259499 -0.0325757 4.8139e-20)
(0.17994 0.0276887 5.03297e-19)
(0.0791309 -0.00970771 2.38744e-19)
(0.34834 0.0801078 4.17417e-19)
(0.232789 0.0343692 2.29083e-20)
(0.499099 0.118446 4.83015e-19)
(0.416378 0.0819818 1.41366e-19)
(0.565135 0.10413 2.21147e-21)
(0.603529 0.138119 4.90211e-19)
(-0.0538443 -0.0448765 -1.17105e-19)
(-0.0680359 -0.0483072 3.1502e-19)
(0.0085282 -0.0304574 3.49262e-19)
(-0.0465511 -0.0422545 1.91103e-19)
(0.132429 -0.00601018 -2.37232e-19)
(0.0342824 -0.0350586 -2.19488e-19)
(0.299954 0.0329928 -2.56738e-19)
(0.168849 -0.00898293 -1.89789e-19)
(0.469394 0.0658595 -3.3669e-19)
(0.357261 0.0267819 -1.46694e-19)
(0.552942 0.0519945 -1.32755e-19)
(0.59187 0.0950393 -3.3034e-19)
(-0.0631938 -0.0466237 6.32398e-19)
(-0.0579916 -0.0426555 4.92906e-19)
(-0.0248751 -0.0462879 -3.60431e-19)
(-0.059986 -0.0494519 1.1306e-19)
(0.0730755 -0.0392902 -1.77136e-19)
(-0.014446 -0.0565652 -2.82131e-20)
(0.229317 -0.0209975 -8.0953e-20)
(0.0813394 -0.0516705 1.51163e-20)
(0.417548 2.18248e-06 8.68849e-20)
(0.245037 -0.0351727 8.16694e-20)
(0.535419 -0.0195786 1.14626e-19)
(0.581943 0.0419631 1.55082e-19)
(-0.0577177 -0.0440547 -7.17967e-21)
(-0.052092 -0.0551493 4.46618e-19)
(-0.00444468 -0.0637206 1.57946e-19)
(0.111877 -0.0632454 1.73726e-19)
(0.314119 -0.0327071 1.03466e-19)
(0.599647 0.0187646 8.56608e-21)
(1.07171 0.938781 7.27389e-21)
(0.911278 1.05126 1.72912e-20)
(1.00852 1.0246 -5.49925e-20)
(1.2707 0.770372 -1.14478e-20)
(1.18908 0.84837 -6.5323e-21)
(1.26891 0.854188 -7.48889e-21)
(1.33495 0.625898 -3.41886e-21)
(1.28462 0.678309 5.81372e-21)
(1.36289 0.681529 1.59452e-20)
(1.34959 0.513421 2.07401e-22)
(1.31672 0.557713 5.9741e-21)
(1.38553 0.555931 1.01699e-20)
(1.34513 0.427465 4.29815e-22)
(1.32146 0.464726 4.7526e-21)
(1.3799 0.458705 -5.27208e-21)
(1.33423 0.360891 1.87228e-22)
(1.31613 0.392154 4.92878e-21)
(1.36582 0.383378 0)
(1.32125 0.308484 1.41722e-21)
(1.30703 0.335134 -4.36511e-21)
(1.34962 0.324664 -1.40303e-21)
(1.30761 0.266513 -8.82048e-23)
(1.29626 0.289548 1.1306e-21)
(1.33314 0.278123 2.00058e-21)
(1.29379 0.23234 -1.20341e-22)
(1.28464 0.252465 -3.16689e-21)
(1.31694 0.240613 4.33348e-22)
(1.27998 0.204094 3.74601e-22)
(1.27259 0.221843 2.94242e-21)
(1.30117 0.209928 1.24665e-21)
(1.26622 0.180424 -2.18771e-21)
(1.26028 0.196212 -4.33917e-21)
(1.28582 0.184475 1.45457e-21)
(1.25249 0.160336 -1.30605e-21)
(1.24777 0.174485 1.93793e-21)
(1.27081 0.163081 6.41397e-21)
(1.23869 0.143079 -3.10078e-22)
(1.23505 0.155849 3.48302e-21)
(1.25604 0.14487 -4.04747e-21)
(1.22472 0.128081 2.1661e-21)
(1.22205 0.13968 -3.12825e-22)
(1.24135 0.129182 -2.77856e-21)
(1.21042 0.114903 -2.44585e-21)
(1.20867 0.125499 2.58757e-21)
(1.22657 0.115509 2.49901e-21)
(1.19562 0.103205 -2.29513e-21)
(1.19476 0.112932 -5.09172e-21)
(1.21151 0.103467 -1.17409e-20)
(1.18013 0.0927321 1.97966e-22)
(1.18017 0.101694 2.76539e-21)
(1.19597 0.0927662 1.39667e-20)
(1.16371 0.0833029 -2.44687e-21)
(1.16472 0.0915742 -5.53843e-21)
(1.17969 0.0832093 -2.60594e-21)
(1.14607 0.0748079 -4.85631e-21)
(1.14819 0.0824269 1.78408e-22)
(1.1624 0.0746642 2.58456e-21)
(1.12679 0.067211 -7.40253e-21)
(1.13029 0.0740976 -1.07123e-20)
(1.1437 0.0669757 -7.44783e-21)
(1.10529 0.0605336 2.6174e-21)
(1.11058 0.0663557 -2.51692e-21)
(1.12305 0.0599697 -1.58789e-22)
(1.08106 0.0547718 7.37596e-21)
(1.08834 0.0595521 1.92188e-21)
(1.09983 0.0544917 4.83431e-21)
(1.05426 0.0499185 2.43027e-22)
(1.06306 0.056492 7.76427e-21)
(1.07377 0.0545384 -5.29094e-23)
(1.03726 0.0663211 -5.25324e-21)
(1.04468 0.0626823 -1.43902e-22)
(1.02162 0.870135 1.80213e-20)
(0.85813 0.938615 -1.04257e-21)
(1.20015 0.738465 8.62959e-21)
(1.1214 0.806311 -5.80951e-21)
(1.26592 0.615031 1.50163e-20)
(1.21584 0.659753 6.86536e-21)
(1.28809 0.511529 1.05778e-20)
(1.25283 0.549007 2.22152e-20)
(1.29224 0.430535 9.24398e-21)
(1.26623 0.462868 2.08313e-21)
(1.28887 0.367208 5.05827e-22)
(1.2688 0.394795 -5.69223e-21)
(1.28202 0.3168 -4.7072e-21)
(1.26606 0.340533 -6.69388e-21)
(1.2733 0.275947 -1.89871e-21)
(1.26039 0.296604 -1.56576e-20)
(1.26347 0.242315 -1.69664e-22)
(1.25294 0.260472 -1.82441e-21)
(1.25293 0.214238 -1.69539e-21)
(1.24432 0.230333 2.41828e-21)
(1.24188 0.190496 -2.77161e-22)
(1.23487 0.204869 -3.58594e-21)
(1.2304 0.170181 6.71268e-21)
(1.22476 0.183098 1.09212e-20)
(1.21848 0.152601 3.5136e-21)
(1.21406 0.164277 4.43659e-23)
(1.20607 0.137224 8.81858e-23)
(1.20277 0.147831 0)
(1.19309 0.123636 2.81118e-24)
(1.19084 0.133315 8.89275e-23)
(1.1794 0.111515 -8.81812e-23)
(1.17817 0.120382 -8.75177e-23)
(1.16486 0.100613 -2.91114e-21)
(1.16467 0.108761 0)
(1.1493 0.0907421 -2.95278e-21)
(1.15019 0.0982511 1.28471e-20)
(1.13249 0.081768 -5.61157e-21)
(1.13457 0.0887142 -1.22969e-20)
(1.11413 0.0736096 -5.5818e-21)
(1.11759 0.0799982 -1.77226e-20)
(1.09378 0.0662762 -2.46526e-21)
(1.09897 0.07178 1.17643e-20)
(1.07097 0.0599651 2.59164e-21)
(1.07836 0.0640184 1.19337e-20)
(1.04548 0.0548727 2.35468e-21)
(1.05511 0.0592484 -6.36836e-21)
(1.0266 0.072352 -9.39425e-21)
(0.964935 0.835121 -1.47022e-20)
(0.829688 0.862762 8.76382e-21)
(1.1342 0.710788 -1.42824e-20)
(1.05654 0.757582 -5.80951e-21)
(1.20168 0.595994 1.32816e-20)
(1.15154 0.632098 -1.46768e-20)
(1.23069 0.502289 1.38453e-20)
(1.19485 0.533565 8.71737e-21)
(1.24261 0.427962 -1.27122e-20)
(1.21547 0.455456 -2.28952e-21)
(1.24586 0.368719 -1.28882e-20)
(1.22449 0.392576 3.74058e-21)
(1.24436 0.320823 -1.74169e-20)
(1.22713 0.341599 -3.68882e-21)
(1.24001 0.281515 -1.57483e-20)
(1.22592 0.299765 -1.66831e-20)
(1.23379 0.248799 7.14468e-22)
(1.22219 0.264958 -1.70232e-21)
(1.22628 0.221216 5.78292e-22)
(1.2167 0.235621 -1.84804e-20)
(1.21779 0.197678 7.46525e-21)
(1.2099 0.210596 1.10879e-21)
(1.20847 0.177365 4.33835e-21)
(1.20206 0.189006 2.5392e-20)
(1.19841 0.159649 -3.48444e-21)
(1.19332 0.170181 1.43952e-20)
(1.18761 0.144042 0)
(1.18373 0.153596 1.69754e-20)
(1.17602 0.130165 0)
(1.17329 0.138844 0)
(1.16357 0.11772 0)
(1.16196 0.125599 -1.55628e-20)
(1.15016 0.106479 1.56387e-20)
(1.14968 0.113608 2.87244e-20)
(1.13566 0.0962668 3.6937e-21)
(1.13635 0.102682 -1.19311e-20)
(1.11994 0.0869522 -2.43717e-20)
(1.12184 0.0926839 -1.22969e-20)
(1.1028 0.0784491 -2.63292e-22)
(1.10601 0.0834105 -1.20733e-20)
(1.08403 0.07075 2.63642e-20)
(1.08874 0.0744125 -2.68673e-20)
(1.06309 0.0639062 2.83667e-21)
(1.06983 0.0658057 3.95191e-20)
(1.03856 0.0576174 -1.80999e-20)
(1.04778 0.0616981 -3.80147e-20)
(1.01789 0.0749858 4.04029e-20)
(0.923501 0.771016 1.80058e-20)
(0.810928 0.781354 -2.87021e-20)
(1.07455 0.668863 -1.21468e-20)
(1.00321 0.700732 2.41254e-20)
(1.14441 0.570557 -2.04837e-20)
(1.09625 0.59923 5.58965e-20)
(1.17932 0.488046 -7.1822e-21)
(1.14366 0.513763 1.68939e-20)
(1.19716 0.420737 1.42168e-20)
(1.16946 0.443767 -2.14039e-20)
(1.20565 0.36595 1.33365e-20)
(1.18351 0.386289 6.88903e-20)
(1.20863 0.320957 -2.6071e-21)
(1.19058 0.338908 -1.70996e-20)
(1.20808 0.283551 -2.81626e-21)
(1.19317 0.299477 -1.05778e-21)
(1.20509 0.252062 -2.07217e-20)
(1.1927 0.266271 4.5851e-20)
(1.20034 0.225234 -1.82137e-20)
(1.19001 0.23798 -6.48817e-20)
(1.19421 0.202118 1.87682e-20)
(1.18564 0.213602 2.67813e-21)
(1.18695 0.181983 3.55507e-20)
(1.17992 0.192368 1.77028e-20)
(1.17869 0.164263 3.48324e-20)
(1.17303 0.173678 -1.95397e-20)
(1.16948 0.148511 1.7117e-20)
(1.16509 0.157058 1.17515e-22)
(1.15931 0.134375 -1.54392e-20)
(1.15612 0.14213 5.16975e-20)
(1.14816 0.121573 1.28258e-20)
(1.14614 0.128588 -6.51114e-20)
(1.13596 0.10988 1.48101e-21)
(1.13509 0.116189 6.00084e-20)
(1.12263 0.0991147 -2.78764e-20)
(1.12293 0.10475 2.51722e-21)
(1.10804 0.0891288 0)
(1.10956 0.0941172 -2.92464e-20)
(1.09204 0.0798031 -3.83696e-20)
(1.09487 0.0840243 4.29087e-20)
(1.07439 0.0710148 -1.11583e-20)
(1.07879 0.0739499 1.97522e-21)
(1.05441 0.0624905 -1.20581e-21)
(1.06088 0.064371 -1.4902e-20)
(1.03102 0.0538781 -2.80261e-20)
(1.03901 0.060716 -2.63982e-20)
(1.01133 0.071254 4.70197e-20)
(0.891487 0.706565 -2.78053e-20)
(0.7973 0.708258 9.25513e-20)
(1.02564 0.626142 9.15033e-20)
(0.960688 0.64713 -7.61309e-20)
(1.09517 0.542825 9.30857e-20)
(1.0492 0.56488 -2.62238e-22)
(1.13355 0.470415 3.74397e-21)
(1.09868 0.491227 2.3958e-20)
(1.15568 0.409903 3.18977e-20)
(1.12807 0.428962 -2.14039e-20)
(1.16836 0.359687 4.00964e-20)
(1.14594 0.376809 5.60962e-20)
(1.17507 0.317798 -1.57563e-20)
(1.15658 0.333111 -8.47215e-20)
(1.17777 0.282508 4.70609e-20)
(1.16235 0.296233 6.1441e-20)
(1.17762 0.252449 3.11534e-21)
(1.16469 0.264797 1.9563e-20)
(1.17533 0.226565 -4.48053e-20)
(1.16447 0.237716 -1.90035e-20)
(1.17137 0.204034 1.37818e-21)
(1.16229 0.214141 2.59388e-20)
(1.16603 0.184217 -3.70918e-20)
(1.1585 0.193403 -4.3571e-20)
(1.15947 0.166603 -5.45214e-20)
(1.15334 0.174968 6.43753e-20)
(1.15178 0.150786 3.42231e-20)
(1.14696 0.15841 -3.56302e-20)
(1.143 0.136437 3.01323e-21)
(1.13941 0.14338 1.47753e-20)
(1.13313 0.123288 -1.88535e-20)
(1.13072 0.129593 -1.42001e-20)
(1.12213 0.11112 6.1493e-20)
(1.1209 0.116821 -2.71263e-21)
(1.10993 0.0997499 1.52002e-21)
(1.10988 0.104886 3.02012e-20)
(1.09645 0.0890247 1.31809e-20)
(1.09761 0.0936367 -1.28704e-20)
(1.08153 0.0788106 8.23724e-20)
(1.08403 0.0827789 8.91127e-20)
(1.06496 0.0689647 -4.53146e-21)
(1.06908 0.0717994 -7.78947e-20)
(1.04617 0.0592939 -4.0026e-20)
(1.05223 0.0614602 1.9231e-20)
(1.02497 0.0498708 7.52019e-22)
(1.03114 0.0577584 -5.99738e-20)
(1.00553 0.065977 2.98763e-20)
(0.866066 0.64791 4.43131e-20)
(0.786149 0.645342 -3.25881e-19)
(0.984834 0.584011 -1.68349e-19)
(0.926464 0.597892 2.95986e-20)
(1.05255 0.513756 -6.86576e-20)
(1.00937 0.530542 -6.74042e-20)
(1.09298 0.450512 0)
(1.05934 0.467138 1.31114e-19)
(1.11819 0.396388 1.64991e-21)
(1.09104 0.411964 1.0789e-19)
(1.13407 0.35064 -6.61063e-20)
(1.11172 0.364865 -8.98172e-20)
(1.1438 0.311886 -9.6456e-21)
(1.12516 0.32478 -1.48689e-19)
(1.14924 0.27881 3.45877e-20)
(1.13356 0.290492 1.31918e-19)
(1.15153 0.250308 -2.04616e-21)
(1.13829 0.260911 -6.14737e-20)
(1.15143 0.225499 5.12238e-20)
(1.14023 0.235149 -2.78365e-20)
(1.14943 0.203683 -1.83282e-20)
(1.13999 0.212491 5.34038e-20)
(1.14584 0.184301 5.68912e-20)
(1.13796 0.192359 -9.30223e-20)
(1.14087 0.166899 8.42304e-20)
(1.13439 0.174287 1.0186e-19)
(1.13462 0.151109 -5.55421e-20)
(1.12946 0.15789 4.75782e-21)
(1.12717 0.136629 -2.22962e-21)
(1.12325 0.142853 -1.77695e-20)
(1.11854 0.123209 1.85425e-21)
(1.11582 0.128913 1.1147e-19)
(1.1087 0.110645 -3.42431e-20)
(1.10717 0.115861 -2.1835e-19)
(1.09763 0.0987681 1.62623e-20)
(1.09728 0.103537 7.06535e-20)
(1.08524 0.0874376 6.23066e-20)
(1.08611 0.0918019 6.78232e-20)
(1.07143 0.0765343 -7.43638e-20)
(1.07366 0.0803662 -1.98102e-20)
(1.05599 0.0659405 -5.48673e-20)
(1.05992 0.0687545 -1.18634e-19)
(1.03852 0.055527 -2.94068e-22)
(1.04428 0.0579002 7.61852e-20)
(1.01945 0.0455419 -1.29587e-19)
(1.02421 0.0539195 -5.99738e-20)
(1.00051 0.0601512 8.46635e-20)
(0.845225 0.595894 -3.48475e-19)
(0.776136 0.591386 -1.63045e-19)
(0.950925 0.544069 1.30218e-19)
(0.898275 0.553188 1.57141e-19)
(1.01585 0.484521 1.28676e-19)
(0.975449 0.497134 0)
(1.05713 0.429243 2.39392e-19)
(1.0249 0.442334 -1.06538e-19)
(1.08441 0.380921 1.94263e-20)
(1.05797 0.393478 -2.82291e-20)
(1.10271 0.339387 -1.71183e-19)
(1.08067 0.351051 -7.50666e-22)
(1.11485 0.303705 -1.09734e-20)
(1.09629 0.314417 -6.52336e-22)
(1.12257 0.272864 3.83082e-20)
(1.10683 0.282675 3.64467e-20)
(1.12696 0.245983 -8.75892e-20)
(1.11356 0.254973 -6.86373e-20)
(1.12877 0.222337 -2.65775e-20)
(1.11737 0.23059 6.13432e-21)
(1.12852 0.201333 -1.98917e-20)
(1.11885 0.208927 3.29051e-20)
(1.12652 0.182487 -4.99096e-20)
(1.1184 0.189493 -5.10583e-20)
(1.12301 0.165398 2.32393e-20)
(1.11629 0.171878 -1.29038e-21)
(1.11812 0.149737 4.27191e-20)
(1.11271 0.155742 -6.684e-20)
(1.11193 0.135229 9.49463e-20)
(1.10777 0.140801 1.92388e-20)
(1.10449 0.121648 -1.0619e-19)
(1.10152 0.126817 2.00085e-19)
(1.09579 0.10881 -1.15647e-19)
(1.09401 0.113604 -3.03554e-19)
(1.08584 0.0965668 1.22175e-19)
(1.08524 0.101026 1.46453e-19)
(1.07458 0.084799 -1.38224e-20)
(1.0752 0.0889615 1.38043e-20)
(1.06193 0.0734089 -6.6362e-20)
(1.06391 0.0771386 -6.59391e-20)
(1.04775 0.0623043 1.70523e-20)
(1.05144 0.065125 0)
(1.03175 0.0513936 1.72604e-20)
(1.03715 0.0539495 -4.95421e-20)
(1.01475 0.041083 5.54728e-20)
(1.01823 0.0496105 6.76258e-20)
(0.996418 0.0541312 -9.90908e-20)
(0.827422 0.549784 3.30058e-19)
(0.766595 0.544543 2.94124e-19)
(0.922273 0.506637 3.02136e-20)
(0.874451 0.51248 2.95938e-20)
(0.984065 0.455657 -2.32587e-19)
(0.946292 0.464984 4.26172e-20)
(1.02543 0.407185 -3.74173e-19)
(0.994678 0.417324 -5.73387e-20)
(1.05404 0.364059 -4.86418e-20)
(1.02845 0.374022 -7.40899e-20)
(1.07414 0.326438 1.69572e-19)
(1.05257 0.335846 -1.34739e-20)
(1.08819 0.293687 4.62374e-20)
(1.06987 0.302444 1.69503e-19)
(1.09777 0.265041 -6.9086e-20)
(1.08213 0.273154 -3.40311e-20)
(1.10394 0.239799 2.42089e-20)
(1.09054 0.247311 -3.20269e-20)
(1.10743 0.217368 6.52813e-20)
(1.09595 0.22433 1.25433e-19)
(1.10872 0.197248 2.56718e-21)
(1.09894 0.203716 -1.10999e-19)
(1.10817 0.179022 -2.89195e-21)
(1.0999 0.18505 5.15139e-20)
(1.10601 0.16234 -9.08642e-20)
(1.09913 0.167976 -3.36401e-21)
(1.10238 0.146908 -9.11094e-20)
(1.0968 0.152194 -4.36837e-20)
(1.09739 0.13248 1.22941e-19)
(1.09304 0.137449 -9.11793e-20)
(1.09108 0.118858 6.68001e-21)
(1.08794 0.123534 1.24435e-19)
(1.08351 0.105879 -4.48314e-20)
(1.08154 0.110285 -1.19116e-19)
(1.07468 0.09342 3.90042e-20)
(1.07388 0.0975922 7.57993e-20)
(1.06457 0.0813857 -3.78336e-20)
(1.06496 0.0853558 7.76083e-20)
(1.05315 0.0697008 0)
(1.05488 0.0733272 -7.53596e-20)
(1.04029 0.0582937 -6.63851e-20)
(1.04374 0.0611202 -1.10013e-19)
(1.02584 0.0471 2.77258e-23)
(1.03084 0.0498063 3.85556e-20)
(1.01083 0.0366799 6.38608e-21)
(1.01319 0.0451031 6.76258e-20)
(0.993256 0.0481195 -9.06763e-20)
(0.811667 0.508423 0)
(0.757162 0.503029 -7.31756e-20)
(0.897641 0.471567 4.17246e-20)
(0.853837 0.475099 6.25383e-21)
(0.95636 0.42741 2.19425e-19)
(0.920951 0.434156 9.1471e-20)
(0.997351 0.384749 2.42272e-19)
(0.968055 0.392432 3.27773e-20)
(1.02677 0.346233 -3.9843e-20)
(1.00209 0.353974 -1.26435e-19)
(1.04817 0.312191 -1.60898e-20)
(1.02718 0.319626 1.11559e-19)
(1.06371 0.282197 9.18495e-20)
(1.04575 0.289215 4.81613e-20)
(1.07483 0.255668 3.13425e-21)
(1.05939 0.262251 8.10703e-20)
(1.08251 0.232051 6.71354e-20)
(1.06921 0.238215 -1.44421e-19)
(1.08744 0.210859 -4.84214e-20)
(1.07599 0.216636 6.47984e-20)
(1.09011 0.191674 -6.3759e-20)
(1.0803 0.197102 -1.17363e-19)
(1.09086 0.174137 5.16056e-20)
(1.08254 0.179258 -8.59727e-21)
(1.08993 0.157945 4.4285e-20)
(1.08297 0.162796 1.61272e-19)
(1.08748 0.142835 -4.32972e-20)
(1.0818 0.147451 -5.62367e-20)
(1.08362 0.128594 -9.15183e-20)
(1.07916 0.133 -9.11793e-20)
(1.07843 0.115047 4.44193e-22)
(1.07515 0.11926 1.379e-19)
(1.07195 0.102058 0)
(1.06983 0.106097 -8.93318e-20)
(1.06424 0.0895303 1.14474e-19)
(1.06326 0.093424 -1.29266e-19)
(1.0553 0.0773924 4.10519e-20)
(1.05548 0.0811664 1.98143e-19)
(1.04513 0.0655908 -1.8515e-19)
(1.04662 0.069102 4.49059e-20)
(1.03365 0.0540701 -4.4869e-22)
(1.03682 0.0568918 4.39227e-20)
(1.02077 0.0427885 1.06079e-19)
(1.02534 0.0456081 -1.60033e-19)
(1.00766 0.0324448 6.38389e-20)
(1.00904 0.0405633 1.47938e-19)
(0.990976 0.0422531 1.70217e-19)
(0.797337 0.470804 -6.84253e-20)
(0.747695 0.465485 -3.89136e-19)
(0.876135 0.438568 5.41265e-20)
(0.835625 0.440416 -2.39255e-19)
(0.932022 0.399933 -9.3348e-20)
(0.898707 0.404603 -1.45766e-19)
(0.972407 0.362214 -3.33251e-19)
(0.944489 0.367845 -2.2904e-19)
(1.00226 0.327765 2.08309e-20)
(0.978507 0.3336 -1.28446e-19)
(1.0246 0.29697 1.76349e-19)
(1.00424 0.30268 1.61139e-19)
(1.04132 0.26954 3.70386e-20)
(1.02378 0.275014 -9.2335e-20)
(1.05369 0.245031 -6.35786e-20)
(1.03853 0.250237 8.10703e-20)
(1.06264 0.223 -1.49233e-19)
(1.04952 0.22794 -1.4759e-19)
(1.06882 0.203052 -2.24331e-21)
(1.05748 0.207743 0)
(1.07271 0.184836 -6.32338e-20)
(1.06296 0.189306 6.15551e-20)
(1.07464 0.168045 9.95884e-20)
(1.06633 0.172325 -6.4612e-20)
(1.07485 0.152413 6.27572e-20)
(1.06786 0.156533 1.66093e-19)
(1.0735 0.137713 -1.03827e-19)
(1.06777 0.1417 4.28723e-21)
(1.07071 0.123756 1.36427e-19)
(1.06618 0.127631 -5.35385e-20)
(1.06658 0.110395 4.99345e-20)
(1.06321 0.11417 3.90671e-20)
(1.06118 0.0975229 -2.18309e-19)
(1.05894 0.101207 4.34878e-21)
(1.05458 0.0850657 -4.81889e-20)
(1.05345 0.0886828 -2.22302e-19)
(1.04682 0.0729781 2.02884e-19)
(1.0468 0.0765467 1.27527e-19)
(1.03791 0.0612249 2.70805e-19)
(1.03915 0.0646046 2.06255e-19)
(1.02782 0.0497629 -1.19239e-19)
(1.03068 0.0525644 -8.85594e-20)
(1.01649 0.0385675 -1.58401e-19)
(1.02061 0.0414617 -1.45562e-19)
(1.00516 0.0284539 2.54046e-19)
(1.00571 0.0361109 3.08435e-20)
(0.989498 0.0366389 2.89798e-19)
(0.784015 0.436085 -5.63158e-19)
(0.738127 0.430876 4.0926e-20)
(0.857077 0.407359 -4.41195e-19)
(0.81926 0.407903 -6.61051e-22)
(0.910487 0.373245 -2.79909e-19)
(0.878987 0.376221 4.66313e-20)
(0.950172 0.339756 -2.58946e-20)
(0.923523 0.343659 -4.48283e-20)
(0.980231 0.308888 6.98884e-21)
(0.957374 0.313083 1.94357e-19)
(1.00324 0.281026 -1.03906e-19)
(0.983524 0.285225 -1.13637e-19)
(1.02086 0.255968 -5.05308e-20)
(1.00379 0.260069 -1.49173e-19)
(1.03427 0.233368 0)
(1.01944 0.237336 9.20627e-20)
(1.04429 0.212875 0)
(1.03141 0.216703 0)
(1.05157 0.194162 6.31753e-20)
(1.04039 0.197859 0)
(1.05654 0.176937 6.15313e-20)
(1.04689 0.180522 -6.09966e-21)
(1.05954 0.160936 -2.52548e-22)
(1.05128 0.164434 -3.89348e-21)
(1.06079 0.145928 1.09105e-19)
(1.05383 0.149364 -5.64633e-20)
(1.06046 0.131714 5.51417e-20)
(1.05472 0.13511 1.07256e-19)
(1.05869 0.118133 -1.51581e-19)
(1.05413 0.121504 1.06259e-19)
(1.05559 0.105065 -6.22825e-21)
(1.05215 0.108417 -2.54525e-19)
(1.05124 0.0924271 2.16058e-21)
(1.0489 0.0957636 2.42683e-19)
(1.04574 0.0801732 -4.92723e-20)
(1.04446 0.0835108 -1.88332e-19)
(1.03914 0.0682796 1.30305e-19)
(1.03892 0.0716296 9.19447e-20)
(1.03148 0.0567258 -1.57814e-19)
(1.03247 0.0599548 -8.86379e-20)
(1.02274 0.045476 -1.15344e-19)
(1.02529 0.0482382 -1.12805e-19)
(1.01292 0.034518 4.14335e-21)
(1.01658 0.0374462 1.62452e-19)
(1.00325 0.024757 -8.62745e-20)
(1.00313 0.0318343 -1.15405e-19)
(0.988725 0.0313599 5.91085e-20)
(0.771453 0.403578 6.03005e-19)
(0.728453 0.398431 3.14187e-19)
(0.839983 0.377651 4.84986e-19)
(0.804355 0.377134 2.44149e-19)
(0.891292 0.34732 2.8258e-19)
(0.861347 0.348879 2.40766e-19)
(0.930279 0.317474 1.7117e-19)
(0.904775 0.319902 -1.28442e-19)
(0.960394 0.289766 7.86934e-20)
(0.938387 0.292536 1.34903e-19)
(0.983882 0.264551 -1.58174e-19)
(0.964802 0.267419 -5.94457e-20)
(1.00222 0.24168 -9.94861e-21)
(0.985627 0.244558 3.52197e-21)
(1.01648 0.220881 9.31606e-20)
(1.00201 0.223733 -3.33979e-21)
(1.02742 0.201869 0)
(1.0148 0.204684 0)
(1.03565 0.184376 -6.92114e-20)
(1.02467 0.187158 7.63793e-20)
(1.04159 0.168155 -7.1525e-20)
(1.03208 0.17092 -7.41926e-20)
(1.04555 0.15298 -5.96796e-20)
(1.03739 0.155748 -6.80598e-20)
(1.04776 0.13865 -5.97784e-20)
(1.04086 0.141444 6.24299e-20)
(1.0484 0.124994 1.58504e-19)
(1.04268 0.12783 -2.96894e-19)
(1.04759 0.111875 6.32652e-21)
(1.04302 0.114764 3.30484e-19)
(1.04548 0.0991979 -9.38269e-21)
(1.04199 0.102139 -1.0329e-19)
(1.04215 0.0869075 5.55684e-20)
(1.03972 0.0898991 4.55764e-20)
(1.03771 0.0749808 -4.93553e-20)
(1.0363 0.0780317 -1.44107e-19)
(1.03224 0.0634127 -1.25911e-19)
(1.03184 0.0665282 -9.7588e-20)
(1.0258 0.0521932 -4.06662e-20)
(1.02653 0.0552501 1.05169e-19)
(1.01837 0.0412888 1.72942e-19)
(1.02059 0.0439892 1.29574e-19)
(1.00999 0.0306955 4.44893e-20)
(1.01319 0.033616 -2.18636e-19)
(1.00183 0.021382 -1.22299e-19)
(1.0012 0.0277973 -4.03274e-20)
(0.988552 0.0264784 -2.97643e-19)
(0.759498 0.372777 -4.29896e-20)
(0.718718 0.367595 -2.90186e-19)
(0.824491 0.349195 0)
(0.790634 0.347753 2.52115e-19)
(0.874071 0.32209 -1.63422e-19)
(0.845443 0.322424 4.5671e-20)
(0.912415 0.295413 -1.69303e-19)
(0.887932 0.296558 -8.75446e-20)
(0.942507 0.270508 0)
(0.92129 0.272025 0)
(0.966343 0.247689 1.01373e-19)
(0.947876 0.249375 -5.99683e-20)
(0.985258 0.226838 1.01904e-20)
(0.969139 0.228616 5.20506e-20)
(1.00022 0.207734 -9.65402e-20)
(0.986124 0.209573 -9.19969e-20)
(1.01196 0.190146 7.55294e-20)
(0.99963 0.192034 2.62592e-21)
(1.02103 0.173852 7.3049e-20)
(1.01027 0.17579 3.17806e-19)
(1.02783 0.158643 -7.07196e-20)
(1.01848 0.160645 -7.96545e-20)
(1.03267 0.144325 5.28071e-20)
(1.02463 0.146409 7.26251e-20)
(1.03577 0.130723 -1.71403e-19)
(1.02895 0.132908 2.51419e-19)
(1.03731 0.11769 -1.30234e-19)
(1.03164 0.119991 -2.36494e-19)
(1.03742 0.105113 2.24405e-19)
(1.03285 0.107535 1.13074e-19)
(1.03624 0.0929209 -4.94636e-20)
(1.03273 0.0954583 1.09924e-19)
(1.03389 0.0810829 -1.52718e-19)
(1.03139 0.083727 -5.05064e-20)
(1.03049 0.0695969 -1.93001e-19)
(1.02895 0.0723503 -4.88516e-20)
(1.02611 0.0584722 1.32313e-19)
(1.02552 0.0613348 -9.56583e-20)
(1.02083 0.0477038 2.75564e-19)
(1.02131 0.0505662 2.81498e-19)
(1.01465 0.0372571 -2.68066e-19)
(1.01652 0.0398706 2.34013e-19)
(1.00762 0.027133 -3.04664e-19)
(1.01035 0.030004 -5.35676e-19)
(1.00082 0.0183389 -2.14254e-19)
(0.99983 0.0240441 1.77921e-19)
(0.988874 0.0220381 -1.32797e-19)
(0.748056 0.343272 -8.42709e-21)
(0.708966 0.337925 -4.37307e-20)
(0.810337 0.321749 3.01729e-19)
(0.777906 0.319447 6.25755e-20)
(0.858532 0.29746 1.23694e-19)
(0.831016 0.296702 4.5671e-20)