/*--------------------------------*- C++ -*----------------------------------*\
  =========                 |
  \\      /  F ield         | OpenFOAM: The Open Source CFD Toolbox
   \\    /   O peration     | Website:  https://openfoam.org
    \\  /    A nd           | Version:  11
     \\/     M anipulation  |
\*---------------------------------------------------------------------------*/
FoamFile
{
    format      ascii;
    class       volScalarField;
    location    "0.36";
    object      epsilon;
}
// * * * * * * * * * * * * * * * * * * * * * * * * * * * * * * * * * * * * * //

dimensions      [0 2 -3 0 0 0 0];

internalField   nonuniform List<scalar> 
2880
(
1.91551
2.44873
2.98261
3.09161
2.90559
2.78291
0.863097
1.04005
1.30868
1.4533
1.52014
1.70038
0.23228
0.778232
0.994716
1.11807
1.21675
1.41232
0.255268
0.722626
0.897965
1.01079
1.11904
1.29802
0.271427
0.732107
0.869699
0.976605
1.08897
1.2522
1.18954
0.78304
0.869242
0.971981
1.0862
1.23869
1.27403
0.829668
0.882741
0.982192
1.0973
1.24095
1.40271
0.867741
0.9018
0.999518
1.11486
1.25118
1.51286
0.897397
0.922207
1.01988
1.1348
1.26431
1.60213
0.919825
0.942142
1.04107
1.15488
1.27745
1.66853
0.936237
0.961018
1.06201
1.17405
1.28911
1.71206
0.947994
0.978812
1.08244
1.19207
1.29885
1.73063
0.955925
0.995829
1.10272
1.20935
1.30707
1.721
0.960147
1.01266
1.12367
1.22693
1.31492
1.68108
0.960715
1.03019
1.14662
1.24652
1.32437
1.61148
0.957869
1.04969
1.17355
1.27069
1.3383
1.5142
0.952343
1.073
1.20739
1.30323
1.36093
1.39308
0.945267
1.10293
1.2526
1.34999
1.39864
1.25541
0.938093
1.14401
1.31622
1.42005
1.46237
0.280829
0.932682
1.20444
1.4105
1.53005
1.57144
0.264246
0.956124
1.30133
1.56025
1.71354
1.76534
0.240122
1.03478
1.47833
1.82664
2.04977
2.14134
0.887426
1.2832
1.90106
2.42105
2.78798
3.00649
1.95628
2.48359
3.6724
4.65089
5.24219
5.84076
5.53281
4.49102
2.94828
1.89658
1.21283
0.778759
0.506051
0.336762
0.233074
0.16993
0.131191
0.106945
0.0912833
0.0807587
0.0733738
0.0679437
0.0638012
0.0606003
0.0582359
0.0567933
0.0564847
0.0571936
0.0594347
0.0644325
3.56548
4.18644
3.61845
2.62899
1.8218
1.22644
0.825194
0.565958
0.399326
0.292233
0.223125
0.178021
0.148074
0.127871
0.114131
0.1043
0.0967991
0.0908381
0.0860595
0.0823954
0.0800013
0.0792806
0.080425
0.0849746
2.40112
3.57238
3.65582
3.34686
2.71717
2.07391
1.51644
1.0782
0.781228
0.576325
0.435791
0.339912
0.274043
0.228193
0.195521
0.171846
0.154476
0.141675
0.132011
0.124315
0.118251
0.113947
0.112715
0.115849
1.87944
2.85706
3.44093
3.53585
3.38752
3.04644
2.59456
2.13184
1.68638
1.29857
0.993998
0.772075
0.607842
0.48579
0.39566
0.329715
0.281401
0.24543
0.218287
0.197914
0.182789
0.171469
0.163125
0.163454
1.64754
2.35752
2.99329
3.39744
3.56301
3.54353
3.42699
3.19104
2.88163
2.54003
2.17842
1.81817
1.485
1.19106
0.948918
0.761104
0.61618
0.505298
0.42157
0.35913
0.312548
0.278418
0.252113
0.240123
1.53828
2.0626
2.61551
3.08477
3.42693
3.62765
3.72608
3.71688
3.64779
3.50105
3.28604
3.02539
2.729
2.41012
2.07952
1.75059
1.44355
1.17188
0.943681
0.761623
0.622478
0.518975
0.440773
0.385732
1.48624
1.89206
2.3494
2.78834
3.16606
3.46409
3.67976
3.81794
3.88702
3.88535
3.83806
3.73279
3.56882
3.36078
3.11068
2.82471
2.51425
2.19166
1.87073
1.5651
1.28859
1.05151
0.86178
0.696523
1.46164
1.78886
2.16535
2.54707
2.90075
3.2073
3.45827
3.65215
3.78969
3.87223
3.90138
3.88439
3.82741
3.72033
3.57362
3.3944
3.18234
2.93926
2.66866
2.37603
2.07186
1.76943
1.49508
1.22071
1.44944
1.72018
2.03039
2.35092
2.65694
2.93207
3.16743
3.35933
3.5069
3.61104
3.67361
3.69754
3.6875
3.6477
3.56981
3.45754
3.31653
3.1485
2.95592
2.7425
2.5124
2.26559
2.01406
1.75981
1.44171
1.66797
1.92209
2.18375
2.43427
2.66052
2.85492
3.01401
3.13717
3.22562
3.28184
3.30913
3.31071
3.29208
3.25121
3.189
3.10746
3.00593
2.88337
2.73885
2.57404
2.39632
2.22415
2.08601
1.43438
1.62273
1.82763
2.03444
2.22891
2.40103
2.54517
2.6592
2.7436
2.8004
2.83288
2.84534
2.84114
2.82408
2.79609
2.75863
2.71157
2.65439
2.58746
2.51094
2.42566
2.33596
2.25145
2.18981
1.42582
1.58007
1.74099
1.89794
2.04021
2.16069
2.25601
2.32603
2.37268
2.39854
2.40869
2.40817
2.39795
2.38333
2.36703
2.34965
2.3317
2.3126
2.2907
2.26526
2.23589
2.20597
2.18092
2.1487
1.41588
1.53881
1.66068
1.77405
1.87133
1.94817
2.00379
2.04037
2.06094
2.06988
2.07398
2.07854
2.08841
2.10362
2.12206
2.14113
2.15911
2.1742
2.18374
2.18477
2.17768
2.16339
2.14146
2.09746
1.4056
1.49989
1.58812
1.66572
1.72802
1.77347
1.80388
1.8235
1.83847
1.85719
1.88403
1.91928
1.96187
2.00673
2.05022
2.09203
2.13112
2.16592
2.19728
2.22404
2.23923
2.24044
2.22349
2.19082
1.39706
1.46568
1.52655
1.5777
1.61719
1.64601
1.669
1.69379
1.72679
1.77088
1.82425
1.88648
1.95448
2.02477
2.09383
2.1579
2.21563
2.26228
2.28875
2.30391
2.31547
2.3166
2.30568
2.3049
1.39323
1.43971
1.4805
1.5158
1.54604
1.57483
1.60839
1.65253
1.71198
1.78864
1.88091
1.98213
2.08335
2.17529
2.25028
2.30353
2.32374
2.31661
2.30928
2.29382
2.26617
2.22735
2.18758
2.19572
1.39815
1.42669
1.45575
1.48693
1.52209
1.56599
1.62528
1.70551
1.8092
1.93352
2.06936
2.20245
2.31684
2.39872
2.43901
2.41883
2.36282
2.29309
2.19846
2.08627
1.96309
1.83474
1.7131
1.66048
1.41734
1.43271
1.45983
1.4998
1.55524
1.63161
1.73435
1.86638
2.02468
2.19784
2.36666
2.50827
2.60193
2.6336
2.58236
2.46227
2.31272
2.12958
1.92926
1.72551
1.52811
1.34244
1.16772
1.05286
1.45936
1.46575
1.50192
1.56605
1.66004
1.78728
1.94979
2.14414
2.35723
2.56579
2.74051
2.85328
2.88446
2.81056
2.63764
2.41653
2.15393
1.87849
1.61295
1.37172
1.16208
0.984583
0.841433
0.768323
1.53693
1.53984
1.59953
1.70657
1.85884
2.05504
2.28966
2.54731
2.80065
3.01414
3.15266
3.19024
3.09239
2.87543
2.59356
2.26159
1.92073
1.60415
1.3311
1.10728
0.929844
0.793027
0.691417
0.640155
1.67001
1.6746
1.77614
1.94874
2.18125
2.46235
2.77207
3.07756
3.33591
3.50307
3.54975
3.41931
3.15592
2.81288
2.41057
2.00355
1.63444
1.32702
1.08603
0.902892
0.765339
0.663497
0.591063
0.559251
1.89228
1.89929
2.064
2.32897
2.66224
3.03348
3.40066
3.7109
3.90979
3.95079
3.78098
3.46434
3.04863
2.56707
2.08844
1.66481
1.32182
1.06086
0.868015
0.725198
0.619808
0.542737
0.490624
0.471825
2.26038
2.25342
2.50365
2.88554
3.32681
3.76684
4.13707
4.36948
4.38774
4.17736
3.7929
3.28418
2.71157
2.15733
1.68124
1.30816
1.03259
0.833495
0.688074
0.580212
0.49971
0.441103
0.404322
0.39339
2.85188
2.77243
3.12778
3.63573
4.15988
4.60145
4.87167
4.85906
4.6049
4.13276
3.51231
2.83806
2.20737
1.68465
1.28907
1.00498
0.802797
0.65567
0.545546
0.461862
0.399455
0.355975
0.331332
0.326148
1.89911
2.38056
4.02765
5.45549
6.17629
26.3743
0.866896
1.39205
2.25774
3.09688
3.97449
5.68768
0.238246
1.18868
1.83469
2.49235
3.23743
4.00786
0.263961
1.12627
1.67358
2.25571
2.93269
3.67997
0.28082
1.1056
1.59161
2.14479
2.82517
3.65385
1.26886
1.09873
1.54136
2.08802
2.804
3.74386
1.39696
1.09646
1.50477
2.05536
2.82164
3.88281
1.50052
1.09402
1.47302
2.03128
2.85417
4.04315
1.5777
1.08898
1.44106
2.00662
2.88842
4.21417
1.6263
1.07984
1.4058
1.97549
2.91595
4.39128
1.64472
1.06578
1.36528
1.93392
2.93056
4.56429
1.6378
1.04673
1.31843
1.87925
2.9281
4.73699
1.60093
1.02321
1.26478
1.80988
2.90509
4.9068
1.54421
0.99684
1.20441
1.72516
2.85854
5.07331
1.47157
0.966523
1.13832
1.6258
2.78504
5.23405
1.38206
0.928263
1.06736
1.51386
2.68352
5.38387
1.27526
0.876194
0.991905
1.39227
2.55225
5.51256
1.18744
0.80275
0.912993
1.26513
2.38958
5.60153
0.274811
0.695784
0.835777
1.13812
2.19478
5.62299
0.264054
0.625788
0.77175
1.01748
1.97014
5.54628
0.247543
0.595114
0.736169
0.919125
1.7275
5.35446
0.225433
0.62645
0.757082
0.874483
1.49899
5.06539
0.841659
0.853558
0.935385
0.97254
1.36956
4.74769
1.97358
2.10134
2.10959
1.8421
1.88914
4.51394
3.6609
3.44122
3.92743
4.54069
5.0726
5.39388
5.35965
5.05574
4.4782
3.73408
2.95198
2.24702
1.68452
1.27286
0.983512
0.778628
0.628299
0.514188
0.42638
0.360121
0.312644
0.281857
0.26668
0.265455
3.86744
4.1504
4.82829
5.48486
5.89755
5.87136
5.52874
4.8451
3.96565
3.07043
2.29307
1.69507
1.26947
0.973868
0.763735
0.607838
0.488435
0.396266
0.326409
0.275841
0.241613
0.221268
0.213013
0.213943
4.11224
4.86253
5.71087
6.3014
6.36471
6.01758
5.25432
4.23335
3.21946
2.36746
1.73196
1.28829
0.980928
0.760565
0.595777
0.469443
0.372393
0.299156
0.245872
0.209203
0.185885
0.173385
0.169778
0.171777
4.41811
5.53489
6.46051
6.76564
6.4961
5.73111
4.57313
3.43161
2.49428
1.81047
1.33788
1.00929
0.771837
0.593944
0.458457
0.355484
0.278465
0.222466
0.183503
0.157987
0.142825
0.135712
0.134892
0.137428
4.75434
6.1261
6.9616
6.89498
6.27022
5.02699
3.74533
2.69997
1.94655
1.42753
1.06475
0.801522
0.605096
0.457197
0.346435
0.264662
0.205596
0.164262
0.136666
0.119426
0.109929
0.106273
0.106838
0.109657
5.10006
6.60773
7.14178
6.77257
5.63412
4.19996
3.01421
2.15972
1.56996
1.156
0.855671
0.633265
0.468059
0.34637
0.25799
0.194916
0.150902
0.12114
0.101968
0.0905192
0.0847388
0.0831533
0.0843249
0.0872178
5.44535
6.9668
7.12962
6.36035
4.83942
3.47864
2.47847
1.78419
1.2961
0.943218
0.684265
0.494517
0.357088
0.259095
0.190333
0.142856
0.110706
0.0895566
0.0763173
0.0687396
0.0652851
0.0648489
0.0662723
0.0689747
5.78988
7.16912
6.93827
5.72627
4.14923
2.94315
2.09841
1.5047
1.07751
0.766754
0.541868
0.381572
0.269402
0.192236
0.139869
0.104731
0.0814804
0.0664752
0.0572698
0.0521889
0.0501174
0.0502283
0.0516928
0.0540504
6.13971
7.2264
6.64739
5.0839
3.61308
2.55619
1.81196
1.2789
0.894005
0.618396
0.424703
0.291547
0.201806
0.142182
0.102881
0.0770888
0.0602787
0.0495368
0.0430068
0.0394794
0.0381632
0.0384389
0.0398029
0.0418024
6.49998
7.21417
6.29339
4.56786
3.22116
2.26265
1.57825
1.08669
0.737312
0.494463
0.330051
0.221383
0.150788
0.105312
0.0760274
0.057097
0.0448476
0.0370208
0.0322375
0.0296387
0.0286722
0.0289155
0.0300344
0.0316852
6.86605
7.15421
5.91819
4.19433
2.92705
2.02404
1.37764
0.919925
0.603947
0.392497
0.255087
0.167743
0.112864
0.0784036
0.0565866
0.0426031
0.033554
0.0277158
0.0240678
0.0219995
0.0211289
0.0211996
0.0219849
0.0232916
7.21365
7.11253
5.59437
3.90504
2.6884
1.81765
1.2004
0.774764
0.491681
0.310026
0.196759
0.127333
0.0849388
0.0588352
0.0424904
0.0320448
0.0252451
0.0207787
0.017881
0.0161055
0.0151868
0.014972
0.0153668
0.0162975
7.52838
7.11205
5.33497
3.68087
2.48638
1.63402
1.04289
0.64942
0.398538
0.244383
0.152004
0.0971791
0.0644622
0.0445954
0.0322292
0.0243159
0.0191148
0.0156204
0.0132462
0.0116486
0.0106253
0.0100663
0.00996463
0.010409
7.8241
7.12789
5.15589
3.50443
2.30841
1.46771
0.902981
0.542271
0.322311
0.192816
0.117994
0.0747849
0.0494475
0.0341981
0.024725
0.0186391
0.0145954
0.011818
0.00984651
0.00840065
0.00730139
0.00642297
0.00567586
0.00524506
8.12459
7.17771
5.04272
3.35887
2.14614
1.31583
0.779379
0.451689
0.260668
0.152688
0.0922798
0.058158
0.0383992
0.0265664
0.0192115
0.0144632
0.0112779
0.00905325
0.00742561
0.00616293
0.00510443
0.00412637
0.00310492
0.00164716
8.45442
7.2745
4.9863
3.23313
1.99494
1.17697
0.671018
0.375901
0.211281
0.121635
0.0728511
0.0457656
0.0302134
0.0209206
0.0151345
0.0113828
0.0088504
0.00706729
0.00574937
0.00471347
0.00383062
0.00300517
0.0021624
0.00110943
8.83739
7.43007
4.96898
3.11776
1.85188
1.05018
0.576689
0.313009
0.171947
0.0976423
0.0581209
0.0364578
0.0240836
0.016693
0.0120817
0.00908215
0.00705051
0.00561585
0.00455415
0.003721
0.00301393
0.00235653
0.00169582
0.000935408
9.30196
7.66066
4.96963
3.00537
1.71495
0.934613
0.495074
0.261138
0.140717
0.0790677
0.046877
0.0293916
0.0194304
0.0134763
0.00975319
0.00732558
0.00567777
0.00451227
0.00364893
0.00297141
0.00239739
0.00186857
0.00135342
0.000802709
9.89011
7.97021
4.97547
2.89051
1.58272
0.829435
0.424783
0.218531
0.115935
0.0646158
0.0382143
0.0239602
0.0158458
0.0109879
0.00794411
0.00595611
0.00460542
0.00364993
0.00294278
0.00238915
0.00192273
0.00149944
0.0011009
0.000700983
10.667
8.35776
4.97851
2.7678
1.45382
0.733741
0.364518
0.183569
0.0961843
0.0532864
0.0314686
0.0197312
0.0130449
0.00903425
0.00651725
0.00487235
0.00375543
0.00296686
0.00238538
0.00193299
0.00155598
0.00122049
0.000914818
0.000623152
11.7317
8.8104
4.954
2.63039
1.32678
0.646882
0.312819
0.154733
0.0803076
0.0443255
0.0261566
0.0163972
0.010828
0.00748106
0.00537883
0.00400605
0.00307623
0.00242264
0.00194394
0.00157517
0.00127225
0.00100848
0.000775604
0.000563187
13.2327
9.22653
4.87033
2.4714
1.20096
0.567701
0.268218
0.130806
0.0674541
0.0371608
0.0219271
0.0137385
0.00905396
0.00623395
0.0044631
0.00330938
0.00253146
0.00198839
0.00159446
0.00129495
0.00105313
0.000847381
0.000671197
0.000517054
15.41
9.51427
4.69515
2.28594
1.07552
0.495065
0.229561
0.110848
0.056974
0.0313816
0.0185266
0.0115974
0.00762131
0.00522519
0.00372261
0.00274752
0.00209429
0.00164246
0.00131872
0.00107643
0.000884611
0.000725303
0.000592907
0.000481652
18.7195
9.59548
4.38411
2.07006
0.949962
0.428341
0.196013
0.0941487
0.048381
0.0266848
0.0157695
0.00985877
0.00645629
0.00440504
0.00312208
0.00229406
0.00174393
0.00136768
0.00110202
0.000906803
0.000755556
0.000633085
0.0005343
0.000454546
2.88193
8.78176
11.4934
12.4718
46.5175
56.3576
1.09971
4.08445
5.64347
6.94117
11.0977
18.1758
1.59921
3.14267
4.20325
5.31551
7.3257
10.5711
2.2398
2.82234
3.60771
4.56645
5.96121
7.63211
2.85179
2.70149
3.29675
4.12532
5.17826
6.14957
3.40534
2.6601
3.11333
3.82662
4.64497
5.24089
3.88262
2.65267
2.99428
3.60761
4.25291
4.61962
4.27436
2.65667
2.91037
3.43958
3.95391
4.16862
4.57711
2.65999
2.84674
3.30789
3.7222
3.83319
4.79107
2.65639
2.7956
3.20475
3.54331
3.58386
4.91855
2.64326
2.75332
3.12542
3.40988
3.40334
4.96277
2.62045
2.71852
3.06787
3.31792
3.28161
4.9285
2.58929
2.69124
3.03247
3.26617
3.21491
4.82032
2.55187
2.67257
3.01888
3.25266
3.20084
4.63826
2.50995
2.6637
3.02858
3.27955
3.24226
4.37948
2.46511
2.66675
3.06434
3.35136
3.34672
4.04403
2.42028
2.68545
3.13003
3.47588
3.52834
3.63417
2.38039
2.7257
3.23256
3.66452
3.81389
3.15483
2.3544
2.79815
3.38514
3.93566
4.25468
2.61531
2.35643
2.92347
3.6129
4.32218
4.95682
2.0318
2.41879
3.14665
3.96754
4.89012
6.16888
1.43139
2.62237
3.58562
4.58621
5.86891
8.61294
1.00571
3.2781
4.66708
5.95926
8.79813
14.9369
2.35039
6.64049
9.09786
10.7621
46.5208
44.9365
21.5021
8.49221
3.8983
1.82712
0.82633
0.367634
0.167038
0.0801788
0.041311
0.0228459
0.013519
0.00843809
0.00550419
0.00373623
0.0026346
0.00192843
0.00146385
0.00115025
0.000932519
0.000775788
0.000657218
0.000563735
0.000490568
0.000433822
12.6821
6.6313
3.33397
1.57927
0.709689
0.313607
0.142286
0.0685334
0.0354866
0.0196971
0.0116732
0.00727196
0.00472372
0.00319016
0.00223911
0.00163427
0.00124075
0.000978985
0.000800622
0.00067516
0.000582713
0.000511866
0.000458068
0.000417998
8.9993
5.39239
2.83987
1.35137
0.605022
0.266826
0.12144
0.0588775
0.0306874
0.0171122
0.0101544
0.0063121
0.00408306
0.00274441
0.00191884
0.00139836
0.00106378
0.000844755
0.000698569
0.000598341
0.000526619
0.000473307
0.000434039
0.000405957
7.00853
4.48932
2.41796
1.15105
0.51445
0.227282
0.104118
0.0509155
0.0267358
0.0149883
0.0089021
0.00552096
0.00355716
0.00238108
0.00166018
0.00120988
0.000924079
0.000740153
0.000620112
0.000540093
0.000484665
0.000444834
0.000416404
0.000396871
5.73559
3.79112
2.06353
0.980756
0.438299
0.194505
0.0898821
0.0443833
0.0234869
0.0132374
0.00786797
0.00486889
0.00312603
0.00208564
0.001452
0.00105995
0.000814392
0.00065917
0.000560244
0.000496259
0.000453493
0.000423927
0.000403584
0.000390121
4.85378
3.24873
1.77153
0.839636
0.375625
0.167726
0.078278
0.0390438
0.020819
0.0117939
0.00701449
0.0043323
0.00277353
0.00184625
0.00128514
0.000941284
0.000728792
0.000596935
0.000514951
0.000463558
0.000430482
0.00040861
0.000394323
0.000385141
4.21372
2.82427
1.53421
0.724763
0.324817
0.146074
0.0688746
0.0346924
0.018632
0.0106055
0.00631171
0.00389226
0.00248658
0.00165328
0.0011522
0.000847992
0.00066251
0.000549555
0.000481063
0.000439472
0.00041373
0.00039751
0.000387569
0.000381452
3.73661
2.49138
1.34348
0.632493
0.284084
0.128699
0.0612902
0.0311575
0.0168443
0.00963025
0.0057356
0.00353348
0.00225464
0.001499
0.00104726
0.00077543
0.000611821
0.000514
0.000456121
0.000422047
0.000401772
0.000389641
0.000382754
0.000378816
3.37713
2.23132
1.19188
0.559225
0.251728
0.114846
0.0552006
0.0282972
0.0153897
0.00883436
0.00526668
0.00324359
0.00206921
0.00137725
0.000965682
0.000719981
0.00057385
0.000487946
0.000438246
0.000409809
0.000393528
0.000384308
0.000379476
0.000377034
3.10802
2.03062
1.07306
0.501755
0.22627
0.103879
0.0503378
0.0259959
0.0142157
0.00819049
0.00488909
0.00301248
0.00192338
0.00128306
0.000903752
0.000678805
0.00054636
0.000469602
0.000425995
0.000401611
0.000388099
0.000380935
0.000377493
0.000375944
2.91214
1.87952
0.981783
0.457396
0.206482
0.0952753
0.0464838
0.0241572
0.0132826
0.00767634
0.00458982
0.00283187
0.00181151
0.00121239
0.000858491
0.00064963
0.000527579
0.000457568
0.000418277
0.000396626
0.000384922
0.000379065
0.000376417
0.000375356
2.77883
1.77103
0.913903
0.42399
0.191382
0.0886231
0.0434692
0.0227091
0.0125471
0.00727293
0.00435819
0.00269499
0.00172901
0.00116199
0.000827517
0.000630664
0.000516133
0.000450796
0.000414307
0.000394289
0.000383624
0.000378359
0.000376025
0.000375155
2.70221
1.70053
0.866319
0.399876
0.180204
0.0835969
0.0411576
0.0215903
0.011979
0.00696498
0.00418543
0.00259633
0.00167221
0.00112932
0.000809004
0.00062056
0.000511014
0.000448553
0.000413562
0.000394277
0.000383808
0.00037854
0.000376117
0.000375159
2.6809
1.66541
0.83689
0.383834
0.172366
0.0799436
0.0394402
0.0207519
0.0115546
0.00674008
0.00406438
0.00253143
0.00163821
0.00111245
0.000801641
0.000618387
0.000511416
0.000450105
0.000415568
0.000396187
0.000385398
0.000379579
0.000376667
0.000375303
2.71573
1.66502
0.824408
0.375033
0.167437
0.0774674
0.0382303
0.0201539
0.0112549
0.00658797
0.00398911
0.00249675
0.00162483
0.00110995
0.000804191
0.000622868
0.000516757
0.000455405
0.000420185
0.000399946
0.000388246
0.000381495
0.000377685
0.000375605
2.81399
1.7007
0.82865
0.373016
0.165115
0.076017
0.0374583
0.0197636
0.0110636
0.00649997
0.00395469
0.00248934
0.00162993
0.00111992
0.000815486
0.000634365
0.000527174
0.000464214
0.000427325
0.000405501
0.000392328
0.000384214
0.000379196
0.00037611
2.98834
1.77582
0.850616
0.377536
0.165188
0.0754883
0.0370705
0.0195537
0.010967
0.00646853
0.00395665
0.00250605
0.00165173
0.00114217
0.00083649
0.000652703
0.000542454
0.000476573
0.000437064
0.00041295
0.000397754
0.000387828
0.000381238
0.000376847
3.26058
1.89736
0.891224
0.388548
0.167467
0.0757583
0.0370151
0.0195009
0.0109527
0.0064867
0.00399117
0.0025456
0.00169029
0.00117726
0.000866672
0.000677725
0.000562726
0.000492659
0.000449581
0.000422458
0.000404673
0.000392471
0.000383933
0.000377904
3.66666
2.07606
0.952076
0.406105
0.171801
0.0767269
0.0372329
0.0195754
0.0110071
0.006548
0.00405553
0.00260711
0.00174534
0.00122436
0.000905821
0.000709633
0.000588272
0.00051277
0.000465159
0.000434278
0.000413303
0.000398334
0.000387443
0.000379398
4.26644
2.32753
1.03549
0.430226
0.177989
0.0782717
0.0376667
0.0197502
0.0111171
0.00664532
0.00414556
0.00268779
0.00181509
0.00128297
0.000954079
0.000748738
0.000619488
0.000537325
0.000484195
0.000448757
0.000423936
0.000405657
0.000391961
0.00038146
5.16482
2.67399
1.14374
0.460582
0.185683
0.0802239
0.0382435
0.019993
0.0112676
0.00677119
0.00425733
0.00278568
0.00189871
0.0013529
0.0010116
0.000795403
0.000656845
0.000566833
0.000507178
0.000466331
0.000436938
0.000414732
0.00039771
0.000384243
6.55993
3.14602
1.2773
0.495869
0.194225
0.0823352
0.0388711
0.0202666
0.011443
0.00691781
0.00438676
0.00289867
0.00199525
0.00143384
0.00107847
0.000849957
0.00070081
0.000601819
0.000534641
0.000487496
0.000452744
0.000425927
0.000404945
0.000387936
8.94105
3.7932
1.43078
0.53259
0.202439
0.0842588
0.0394394
0.0205306
0.0116279
0.00707756
0.00452982
0.00302464
0.00210368
0.00152543
0.00115473
0.0009127
0.000751846
0.000642848
0.000567195
0.000512877
0.000471941
0.000439662
0.000413705
0.000392572
14.2443
4.60734
1.57766
0.562979
0.208531
0.0855715
0.0398337
0.0207484
0.0118081
0.00724382
0.00468294
0.00316167
0.00222305
0.00162737
0.0012405
0.00098402
0.000810515
0.000690572
0.000605513
0.000543087
0.000495007
0.000456254
0.000424295
0.000398243
3.00787
2.2858
2.32366
2.1712
2.48151
6.1869
1.02615
1.0968
1.33576
1.74283
3.99939
11.3163
0.265959
1.0018
1.41441
2.32634
5.98349
10.9732
1.29397
1.2714
1.70607
3.10989
7.07529
9.9635
1.66066
1.49325
2.05344
3.85698
7.29655
8.77956
1.91846
1.67019
2.3914
4.43382
7.14155
7.69163
2.13085
1.82289
2.68927
4.76584
6.72798
6.74415
2.31349
1.95956
2.93278
4.88725
6.2907
5.92774
2.46947
2.08222
3.12059
4.88233
5.86967
5.24699
2.59949
2.19065
3.2567
4.79456
5.48403
4.6933
2.70458
2.27862
3.34441
4.66535
5.14406
4.2531
2.78055
2.34145
3.38984
4.52392
4.85377
3.91222
2.81564
2.37502
3.39996
4.38634
4.61436
3.65836
2.80826
2.38157
3.38209
4.26185
4.42568
3.48179
2.75832
2.36447
3.34365
4.15542
4.28482
3.37969
2.66607
2.32906
3.29248
4.07034
4.18998
3.3595
2.53097
2.2838
3.23729
4.01064
4.15277
3.40281
2.35192
2.24011
3.18869
3.98138
4.17283
3.53614
2.12744
2.21439
3.16002
3.98893
4.26062
3.7588
1.85471
2.22341
3.17066
4.03921
4.44294
4.07353
1.51634
2.30112
3.25796
4.1671
4.72468
4.51743
1.18879
2.52341
3.52717
4.45817
5.15224
5.29766
0.95015
3.17776
4.34682
5.25092
5.92419
7.32653
2.66618
6.02275
8.36032
8.87289
8.51735
6.1737
12.7551
4.63301
1.6187
0.572804
0.210236
0.0858549
0.039962
0.0208953
0.0119729
0.00741175
0.00484349
0.00330831
0.00235275
0.00173958
0.0013361
0.00106451
0.000877579
0.000745831
0.000650435
0.000578896
0.000522587
0.000476202
0.000437097
0.000405125
10.4201
4.29704
1.56924
0.562643
0.207869
0.0852269
0.0398417
0.0209659
0.01212
0.00757901
0.00501
0.00346383
0.00249258
0.00186232
0.00144213
0.00115502
0.000954037
0.000809693
0.000703017
0.000621284
0.000555533
0.0005002
0.000452679
0.000413404
8.49509
3.76827
1.47436
0.539305
0.202329
0.0838176
0.0395082
0.0209684
0.0122502
0.00774544
0.00518225
0.00362818
0.0026428
0.00199616
0.00155942
0.00125659
0.00104105
0.000883382
0.000764479
0.000671407
0.00059491
0.000529275
0.00047219
0.000423669
6.96078
3.21889
1.34489
0.509281
0.194533
0.0817727
0.0389947
0.0209203
0.0123676
0.0079127
0.00536109
0.00380205
0.00280415
0.00214197
0.00168901
0.00137038
0.00113992
0.000968282
0.000836278
0.000730775
0.000642241
0.000564827
0.000496465
0.000436363
5.75029
2.74498
1.19305
0.473577
0.185459
0.0793002
0.0383512
0.0208361
0.0124783
0.00808407
0.00554857
0.00398693
0.00297792
0.00230102
0.0018322
0.00149779
0.00125214
0.001066
0.000920097
0.000801105
0.000699175
0.00060825
0.00052647
0.000451879
4.80034
2.35336
1.0551
0.434562
0.175834
0.0766213
0.0376453
0.0207402
0.0125925
0.00826501
0.00574822
0.00418544
0.00316627
0.00247524
0.00199086
0.00164071
0.00137964
0.00117854
0.00101802
0.000884496
0.000767712
0.000661272
0.000563483
0.000470805
4.06039
2.03592
0.935384
0.396531
0.16597
0.0739536
0.0369594
0.0206648
0.0127248
0.00846374
0.00596556
0.00440172
0.00337258
0.00266761
0.00216776
0.00180179
0.00152507
0.00130855
0.0011327
0.000983577
0.000850373
0.000726147
0.00060926
0.000493971
3.48903
1.78102
0.835074
0.363554
0.156577
0.0714912
0.0363727
0.0206404
0.012893
0.00869155
0.00620854
0.00464192
0.00360197
0.00288262
0.002367
0.00198491
0.00169213
0.00145963
0.00126765
0.00110178
0.000950445
0.000805869
0.000666193
0.000522492
3.05081
1.57831
0.753048
0.335769
0.148253
0.0693959
0.0359545
0.0207033
0.0131186
0.00896291
0.00648788
0.00491465
0.00386182
0.00312689
0.00259469
0.00219583
0.00188631
0.00163704
0.0014279
0.00124387
0.00107245
0.000904584
0.000737655
0.000557856
2.71713
1.41919
0.687614
0.313225
0.141404
0.067816
0.0357627
0.0209017
0.0134288
0.00929604
0.00681755
0.00523158
0.00416245
0.00340993
0.00285989
0.00244327
0.00211609
0.00184897
0.0016213
0.0014173
0.00122332
0.00102864
0.000828904
0.000602167
2.46603
1.2968
0.637113
0.29592
0.13637
0.0668811
0.0358297
0.0212702
0.0138514
0.00971251
0.0072152
0.00560807
0.00451794
0.0037452
0.00317578
0.00274045
0.00239485
0.002109
0.00186145
0.00163539
0.00141577
0.00118992
0.000950205
0.000659447
2.2813
1.20592
0.600083
0.283648
0.133969
0.0666818
0.0362983
0.0218621
0.0144203
0.0102388
0.00770326
0.00606421
0.00494715
0.00415114
0.00356111
0.00310701
0.00274366
0.00244011
0.00217365
0.00192583
0.00167956
0.00141927
0.00113106
0.000746618
2.15184
1.14286
0.575406
0.27687
0.13335
0.0674449
0.0372726
0.0227418
0.0151807
0.01091
0.00831122
0.00662644
0.00547497
0.00465225
0.00404108
0.00357012
0.00319321
0.00287858
0.00260274
0.00234647
0.00209149
0.00181752
0.00149454
0.00100107
2.07073
1.10547
0.562901
0.275903
0.135031
0.069405
0.0388692
0.0239899
0.016193
0.0117732
0.00907872
0.00732985
0.00613393
0.00527991
0.00464723
0.00416298
0.00378061
0.00346909
0.00320733
0.00298161
0.00278441
0.0026189
0.00252355
0.00261892
2.03761
1.0934
0.562881
0.280372
0.139612
0.0728296
0.0412649
0.0257265
0.0175426
0.0128947
0.0100605
0.00822232
0.00696746
0.00607468
0.00541846
0.0049241
0.00454552
0.00425431
0.00403462
0.00388063
0.00379496
0.00379552
0.00393456
0.00429153
2.04669
1.10775
0.576709
0.291839
0.147762
0.078132
0.0447257
0.0281285
0.0193542
0.0143698
0.0113348
0.00937137
0.00803604
0.00709206
0.00640667
0.00590278
0.00553552
0.0052807
0.00512932
0.0050838
0.00514934
0.00534616
0.00572821
0.00630956
2.11077
1.15222
0.606858
0.311996
0.160553
0.085981
0.0496626
0.0314628
0.0218146
0.0163396
0.0130164
0.0108753
0.00942694
0.0084114
0.0076849
0.00716667
0.0068131
0.00660502
0.00654127
0.00662282
0.00686479
0.00729145
0.00793125
0.00875647
2.23888
1.23459
0.658101
0.343739
0.179752
0.0974478
0.0567251
0.0361474
0.0252121
0.0190201
0.0152784
0.0128811
0.0112699
0.0101498
0.00935995
0.00881333
0.00846672
0.00830684
0.00833682
0.00855116
0.00899619
0.00967132
0.0105981
0.0117121
2.44889
1.36727
0.738338
0.39189
0.208268
0.114289
0.0669922
0.0428624
0.0300104
0.022753
0.018392
0.0156166
0.013764
0.0124855
0.0115934
0.0109892
0.0106285
0.0105043
0.0106109
0.0109642
0.0116208
0.0125641
0.0138167
0.0152833
2.77251
1.57037
0.860796
0.464749
0.251175
0.139564
0.0823231
0.0527773
0.0369935
0.0281063
0.0228
0.0194481
0.0172259
0.0157001
0.0146393
0.0139238
0.0135047
0.0133798
0.0135348
0.014003
0.0148606
0.0160841
0.017704
0.0196035
3.22955
1.86657
1.0446
0.575471
0.316713
0.17836
0.105905
0.0679466
0.0475432
0.0360702
0.0292602
0.0249914
0.0221801
0.0202557
0.0189118
0.0179921
0.0174329
0.017234
0.0173859
0.0179062
0.0189205
0.0204122
0.0224302
0.0248566
3.87934
2.27786
1.31439
0.747063
0.42185
0.241571
0.144386
0.0924765
0.0643248
0.0484929
0.0391471
0.0333351
0.0295351
0.0269403
0.0251129
0.0238272
0.0229844
0.022575
0.0226351
0.0230959
0.0241514
0.0258553
0.0282698
0.0313235
4.90384
2.81751
1.66954
0.988427
0.581153
0.343201
0.208489
0.133826
0.0924223
0.0689267
0.0550645
0.0464947
0.0409324
0.0371502
0.03447
0.0325304
0.0311579
0.0303085
0.0300391
0.0303226
0.0312164
0.0329612
0.0356924
0.0394627
7.09791
4.037
2.29215
1.37543
0.837036
0.513106
0.320075
0.207366
0.142329
0.104595
0.0821823
0.0683683
0.0594652
0.0534522
0.049194
0.0460593
0.0437183
0.0420372
0.0410321
0.0408275
0.0413328
0.0427389
0.0455363
0.0500611
)
;

boundaryField
{
    rotor
    {
        type            epsilonWallFunction;
        value           nonuniform List<scalar> 
144
(
1.91551
2.44873
2.98261
3.09161
2.90559
2.78291
1.91551
0.863097
0.23228
0.255268
0.271427
1.18954
1.27403
1.40271
1.51286
1.60213
1.66853
1.71206
1.73063
1.721
1.68108
1.61148
1.5142
1.39308
1.25541
0.280829
0.264246
0.240122
0.887426
1.95628
1.95628
2.48359
3.6724
4.65089
5.24219
5.84076
1.89911
2.38056
4.02765
5.45549
6.17629
26.3743
1.89911
0.866896
0.238246
0.263961
0.28082
1.26886
1.39696
1.50052
1.5777
1.6263
1.64472
1.6378
1.60093
1.54421
1.47157
1.38206
1.27526
1.18744
0.274811
0.264054
0.247543
0.225433
0.841659
1.97358
1.97358
2.10134
2.10959
1.8421
1.88914
4.51394
2.88193
8.78176
11.4934
12.4718
46.5175
56.3576
2.88193
1.09971
1.59921
2.2398
2.85179
3.40534
3.88262
4.27436
4.57711
4.79107
4.91855
4.96277
4.9285
4.82032
4.63826
4.37948
4.04403
3.63417
3.15483
2.61531
2.0318
1.43139
1.00571
2.35039
2.35039
6.64049
9.09786
10.7621
46.5208
44.9365
3.00787
2.2858
2.32366
2.1712
2.48151
6.1869
3.00787
1.02615
0.265959
1.29397
1.66066
1.91846
2.13085
2.31349
2.46947
2.59949
2.70458
2.78055
2.81564
2.80826
2.75832
2.66607
2.53097
2.35192
2.12744
1.85471
1.51634
1.18879
0.95015
2.66618
2.66618
6.02275
8.36032
8.87289
8.51735
6.1737
)
;
    }
    freestream
    {
        type            inletOutlet;
        inletValue      uniform 0.000375;
        value           nonuniform List<scalar> 
96
(
0.0644325
0.0849746
0.115849
0.163454
0.240123
0.385732
0.696523
1.22071
1.75981
2.08601
2.18981
2.1487
2.09746
2.19082
2.3049
2.19572
1.66048
1.05286
0.768323
0.640155
0.559251
0.471825
0.39339
0.326148
0.265455
0.213943
0.171777
0.137428
0.109657
0.0872178
0.0689747
0.0540504
0.0418024
0.0316852
0.0232916
0.0162975
0.010409
0.00524506
0.000375
0.000375
0.000375
0.000375
0.000375
0.000375
0.000375
0.000375
0.000375
0.000375
0.000375
0.000375
0.000375
0.000375
0.000375
0.000375
0.000375
0.000375
0.000375
0.000375
0.000375
0.000375
0.000375
0.000375
0.000375
0.000375
0.000375
0.000375
0.000375
0.000375
0.000375
0.000375
0.000375
0.000375
0.000375
0.000375
0.000375
0.000375
0.000375
0.000375
0.000375
0.000375
0.000375
0.000375
0.000375
0.000375
0.000375
0.00261892
0.00429153
0.00630956
0.00875647
0.0117121
0.0152833
0.0196035
0.0248566
0.0313235
0.0394627
0.0500611
)
;
    }
    frontAndBack
    {
        type            empty;
    }
}


// ************************************************************************* //
