/*--------------------------------*- C++ -*----------------------------------*\
  =========                 |
  \\      /  F ield         | OpenFOAM: The Open Source CFD Toolbox
   \\    /   O peration     | Website:  https://openfoam.org
    \\  /    A nd           | Version:  11
     \\/     M anipulation  |
\*---------------------------------------------------------------------------*/
FoamFile
{
    format      ascii;
    class       volScalarField;
    location    "0.36";
    object      k;
}
// * * * * * * * * * * * * * * * * * * * * * * * * * * * * * * * * * * * * * //

dimensions      [0 2 -2 0 0 0 0];

internalField   nonuniform List<scalar> 
2880
(
0.00410824
0.0101563
0.0203374
0.0314035
0.0411593
0.052428
0.0166117
0.0275062
0.0417476
0.0537986
0.0637535
0.0736093
0.0206255
0.0359554
0.0526026
0.0658363
0.0768639
0.0870097
0.0226664
0.0417861
0.0601055
0.0743677
0.0863502
0.0972391
0.0240667
0.0465882
0.0661112
0.0812522
0.0940854
0.105722
0.0249285
0.050919
0.0712153
0.0871096
0.100705
0.113025
0.0262082
0.0548168
0.0756254
0.0921753
0.106448
0.119366
0.0279083
0.058214
0.0794131
0.0965431
0.111407
0.124816
0.0293494
0.0610744
0.0825997
0.100248
0.115617
0.129393
0.0304918
0.0633794
0.0851916
0.103304
0.11909
0.133101
0.0313277
0.0651164
0.0871897
0.105717
0.121834
0.135955
0.0318694
0.0662712
0.0885924
0.107492
0.123866
0.137986
0.0320987
0.0668337
0.0893931
0.10863
0.125204
0.139247
0.0319788
0.0667999
0.089572
0.109129
0.125873
0.139801
0.0314822
0.0661544
0.0891201
0.108979
0.125895
0.139728
0.0306072
0.0648691
0.087994
0.108158
0.125289
0.139107
0.0293633
0.0629016
0.0861381
0.106619
0.124053
0.138019
0.0277757
0.0601877
0.0834686
0.104283
0.122156
0.136526
0.0259122
0.0566244
0.0798559
0.101011
0.11951
0.134662
0.0249595
0.0520321
0.0750909
0.0965673
0.115923
0.132404
0.0234867
0.0463957
0.0688059
0.0905237
0.111004
0.129602
0.0213266
0.0391077
0.0602279
0.0820418
0.103941
0.125838
0.0170802
0.0284713
0.0473209
0.0691715
0.0929219
0.120053
0.00419528
0.0103012
0.025026
0.0471936
0.0741926
0.110061
0.113689
0.126211
0.119943
0.104127
0.0871737
0.0726184
0.0612184
0.052975
0.0474381
0.0439635
0.041932
0.0408566
0.0403896
0.0403265
0.0404455
0.0407275
0.0411854
0.0418216
0.0427068
0.0439311
0.0455643
0.0476311
0.0502
0.0533538
0.106983
0.12703
0.125195
0.115573
0.100032
0.0850669
0.0724433
0.0627479
0.0557877
0.0511172
0.0481773
0.04645
0.0455378
0.0451787
0.0452032
0.045376
0.045745
0.0462805
0.0470036
0.0480039
0.0493752
0.0511785
0.0535364
0.0567608
0.109557
0.132899
0.13938
0.136014
0.125544
0.110822
0.0959177
0.0829801
0.0728601
0.0652099
0.0597398
0.0560015
0.0535544
0.0520631
0.0513044
0.0511337
0.0512532
0.051536
0.0520595
0.0528048
0.0538375
0.0552517
0.0571934
0.0603242
0.115513
0.139117
0.154175
0.159748
0.157661
0.150605
0.139026
0.125745
0.11191
0.098837
0.0878486
0.0792488
0.0725951
0.0676173
0.0640447
0.06157
0.0599562
0.0590063
0.058718
0.0588553
0.0592663
0.0601324
0.0614888
0.0642431
0.122261
0.144649
0.164198
0.177915
0.185588
0.187311
0.185259
0.179872
0.170838
0.159908
0.147193
0.133606
0.12019
0.107665
0.0967591
0.0879534
0.0810572
0.075847
0.0720887
0.0695002
0.0679285
0.0674402
0.0676878
0.069085
0.128919
0.150132
0.171182
0.189507
0.203894
0.21395
0.220291
0.222683
0.221792
0.218487
0.211686
0.202162
0.19043
0.176883
0.162037
0.146493
0.131301
0.117326
0.105227
0.0954194
0.0880149
0.0827568
0.0791827
0.0781973
0.13508
0.155334
0.176431
0.196572
0.214451
0.22937
0.241231
0.249835
0.255364
0.257714
0.257045
0.254036
0.247864
0.238819
0.227224
0.213395
0.197801
0.181034
0.163827
0.146936
0.131219
0.117493
0.106208
0.0981482
0.14049
0.159869
0.180253
0.200456
0.219325
0.236128
0.250481
0.262128
0.271014
0.27708
0.280415
0.281002
0.279367
0.275327
0.268365
0.259083
0.247576
0.233939
0.218449
0.201493
0.183702
0.165812
0.149021
0.134167
0.144994
0.163445
0.182617
0.201732
0.219955
0.236568
0.251126
0.26335
0.273113
0.280363
0.285142
0.287513
0.287611
0.285855
0.281844
0.27569
0.267834
0.258342
0.247155
0.234317
0.219895
0.203967
0.187512
0.173258
0.148514
0.1659
0.183472
0.20082
0.217276
0.232273
0.245426
0.256504
0.26542
0.272181
0.27687
0.279608
0.280541
0.279881
0.277687
0.273761
0.268302
0.261361
0.253037
0.243458
0.232955
0.221907
0.210791
0.202276
0.151035
0.1672
0.182914
0.198
0.212
0.224505
0.235238
0.244068
0.250993
0.256106
0.259571
0.261573
0.262315
0.26198
0.260682
0.258415
0.255264
0.251238
0.246321
0.240534
0.234048
0.227577
0.222373
0.218978
0.152601
0.167411
0.1811
0.193679
0.204888
0.214487
0.222344
0.228459
0.232952
0.236029
0.237958
0.239001
0.239418
0.23941
0.239039
0.238347
0.237347
0.236014
0.234283
0.232112
0.229707
0.227503
0.225609
0.223591
0.153305
0.166699
0.178325
0.188373
0.196777
0.203472
0.208495
0.212005
0.214272
0.215623
0.216413
0.216971
0.217561
0.218351
0.219438
0.220713
0.222075
0.223453
0.224746
0.225844
0.226506
0.226551
0.22591
0.223734
0.153273
0.165285
0.174964
0.182683
0.188569
0.192742
0.195428
0.196942
0.197684
0.198039
0.198419
0.199196
0.200622
0.20285
0.205833
0.209216
0.21278
0.216471
0.220108
0.223455
0.226232
0.228006
0.228456
0.227966
0.15266
0.163435
0.171446
0.177255
0.181182
0.183519
0.184649
0.185055
0.185262
0.18585
0.18716
0.189274
0.192084
0.19539
0.199066
0.203142
0.207402
0.211702
0.215927
0.219924
0.223464
0.226183
0.2278
0.229451
0.151641
0.16145
0.16823
0.172737
0.175462
0.176879
0.177593
0.178192
0.179233
0.180984
0.183503
0.186642
0.190086
0.193461
0.196347
0.199007
0.201424
0.203453
0.205017
0.206161
0.206888
0.207203
0.207634
0.210209
0.1504
0.159649
0.165784
0.16975
0.172216
0.173814
0.175186
0.176867
0.179234
0.182395
0.186107
0.189858
0.193043
0.195124
0.195737
0.194848
0.19289
0.189891
0.186177
0.181968
0.177406
0.17258
0.16798
0.167092
0.149136
0.158375
0.164589
0.1689
0.172113
0.174922
0.177939
0.181568
0.185913
0.190683
0.195228
0.198723
0.200418
0.19981
0.196215
0.190312
0.182862
0.174446
0.165648
0.156935
0.148593
0.140625
0.133113
0.131749
0.148067
0.15801
0.165133
0.170711
0.17568
0.180695
0.186163
0.192194
0.198464
0.204226
0.208493
0.210305
0.209182
0.203512
0.195073
0.184273
0.172127
0.159734
0.148006
0.137542
0.128672
0.12143
0.117407
0.117725
0.147459
0.158987
0.16793
0.175768
0.183415
0.191316
0.199559
0.207771
0.215125
0.2205
0.222793
0.221256
0.214366
0.203923
0.190506
0.175329
0.159956
0.145782
0.133704
0.124071
0.116888
0.112381
0.11125
0.112894
0.1477
0.161936
0.173754
0.184714
0.195647
0.206659
0.217308
0.226661
0.233469
0.236487
0.234471
0.226727
0.214544
0.198689
0.180757
0.162708
0.146306
0.132713
0.122329
0.114951
0.110236
0.108282
0.108864
0.111718
0.149436
0.167812
0.18344
0.198122
0.212509
0.226141
0.237941
0.246501
0.250434
0.24792
0.239472
0.225578
0.207211
0.186535
0.165946
0.147531
0.132561
0.12136
0.113546
0.108526
0.106133
0.106208
0.107633
0.111381
0.154007
0.177834
0.197822
0.216318
0.233556
0.248338
0.259013
0.263997
0.260998
0.251829
0.235931
0.214958
0.191565
0.168618
0.148486
0.132444
0.120585
0.11227
0.106753
0.103673
0.102997
0.103788
0.106321
0.110588
0.16373
0.193083
0.217185
0.238736
0.257164
0.270528
0.276712
0.27338
0.263515
0.24538
0.221682
0.195637
0.170589
0.149098
0.132297
0.119946
0.111111
0.104927
0.100951
0.0991268
0.099297
0.100751
0.104073
0.108229
0.00407755
0.00990191
0.0275664
0.0556025
0.0876955
0.115574
0.0166941
0.0274373
0.0501877
0.0793034
0.112076
0.14901
0.021154
0.0389722
0.0645282
0.0947335
0.128957
0.167637
0.0233638
0.0468705
0.0740082
0.105122
0.140297
0.179393
0.0249559
0.0528504
0.0807214
0.112352
0.148081
0.1877
0.026194
0.057421
0.0854804
0.117279
0.153335
0.193577
0.0278679
0.0607302
0.0886968
0.120366
0.156597
0.197505
0.0292266
0.0629889
0.0906187
0.121906
0.158203
0.199831
0.0302196
0.0643381
0.0914161
0.122105
0.158393
0.200867
0.0308361
0.0648784
0.0912388
0.121118
0.15736
0.200917
0.0310675
0.0647131
0.0901561
0.119072
0.155271
0.200261
0.0309798
0.0638606
0.0882753
0.116071
0.15226
0.199234
0.0305127
0.0623861
0.0856765
0.112201
0.148421
0.198024
0.0297882
0.0603077
0.0824319
0.107534
0.143802
0.196734
0.0288468
0.0576512
0.0786072
0.102128
0.138377
0.195317
0.0276652
0.0544495
0.0742639
0.0960336
0.132084
0.193582
0.0262342
0.05075
0.0694694
0.0893008
0.124813
0.191247
0.0249524
0.0467189
0.0643159
0.0819963
0.116439
0.187845
0.024387
0.0426666
0.0589247
0.074225
0.106884
0.182474
0.0234444
0.0388329
0.053388
0.0661475
0.0959159
0.174219
0.0219826
0.0349443
0.047613
0.0577437
0.0834129
0.162159
0.0200204
0.0304721
0.0411215
0.0486691
0.0691708
0.145238
0.0162035
0.0239151
0.0323295
0.0376065
0.0520475
0.120326
0.00423513
0.00872243
0.014397
0.0187312
0.0268206
0.0853362
0.180786
0.213077
0.240265
0.263192
0.280085
0.287929
0.284831
0.274507
0.254194
0.227686
0.199094
0.172225
0.149697
0.132356
0.119574
0.110158
0.103153
0.0981242
0.09505
0.0941286
0.0947536
0.0969019
0.10062
0.104575
0.198967
0.234382
0.263873
0.285877
0.296996
0.295073
0.284799
0.262822
0.233542
0.20258
0.174142
0.15078
0.132957
0.119666
0.109541
0.10161
0.0954697
0.0911382
0.0888051
0.0885806
0.0896363
0.0923196
0.0960915
0.0997936
0.214109
0.253912
0.284399
0.30194
0.303337
0.294177
0.271572
0.239949
0.206874
0.177031
0.152872
0.134456
0.120469
0.109468
0.100515
0.0932398
0.0876619
0.0839796
0.0823656
0.0825901
0.0840823
0.0870858
0.0907763
0.094209
0.226384
0.269769
0.298853
0.307792
0.301677
0.280756
0.247646
0.212757
0.181549
0.156461
0.137213
0.122274
0.110194
0.100106
0.0916678
0.0848725
0.0798784
0.0768602
0.0758752
0.0764219
0.078292
0.0813384
0.0848746
0.0880382
0.235966
0.280987
0.304621
0.305573
0.289718
0.257178
0.220911
0.18828
0.162004
0.141603
0.125417
0.112026
0.100644
0.0909678
0.0829607
0.0767143
0.0723567
0.0699584
0.0694514
0.0702316
0.0722901
0.075253
0.0785676
0.0814603
0.242983
0.287272
0.30382
0.29552
0.268632
0.231752
0.197682
0.169923
0.148027
0.130282
0.115317
0.10243
0.091368
0.0820868
0.0746133
0.0689945
0.0652604
0.0633703
0.0631714
0.0640735
0.066148
0.0689331
0.0719829
0.07461
0.247681
0.288778
0.296007
0.279736
0.245289
0.210104
0.180622
0.15691
0.137299
0.120473
0.105813
0.0931401
0.0824301
0.0736733
0.0668334
0.0618544
0.0586601
0.0571284
0.0570709
0.0579794
0.059924
0.0624569
0.0652125
0.0675854
0.250507
0.286792
0.284484
0.261031
0.225637
0.194414
0.168674
0.146944
0.127962
0.111213
0.0966224
0.0842282
0.0740226
0.0659106
0.0597399
0.0553446
0.0525646
0.0512353
0.0511698
0.0519732
0.0536678
0.0558864
0.0583243
0.0604551
0.251873
0.281623
0.272367
0.24365
0.211373
0.183664
0.159694
0.13831
0.119131
0.102242
0.0878066
0.0758672
0.0663082
0.0588986
0.053366
0.0494559
0.0469561
0.0456887
0.0454895
0.0460839
0.0474284
0.0492754
0.0513697
0.0532666
0.25221
0.274759
0.260844
0.230909
0.20193
0.175929
0.152068
0.130157
0.11054
0.0936037
0.0795204
0.0682036
0.0593729
0.0526576
0.0476887
0.0441539
0.0418152
0.0404974
0.0400644
0.0403538
0.0412619
0.0426744
0.0443898
0.0460521
0.252007
0.267728
0.251287
0.222995
0.195746
0.169708
0.144947
0.122189
0.102205
0.0854328
0.0718994
0.0613169
0.053231
0.0471557
0.0426592
0.0394007
0.0371332
0.0356879
0.034952
0.0348434
0.0352482
0.0361415
0.0374151
0.0388221
0.251548
0.261789
0.2449
0.218498
0.191345
0.16409
0.137969
0.114374
0.0942357
0.0778566
0.0650229
0.055222
0.0478474
0.0423348
0.038223
0.0351648
0.0329142
0.031306
0.0302379
0.0296503
0.0295048
0.0297636
0.0304632
0.0315362
0.251033
0.258176
0.241958
0.21622
0.187806
0.158647
0.131047
0.106792
0.0867513
0.0709589
0.0589122
0.0498862
0.0431602
0.0381292
0.0343296
0.0314231
0.02917
0.0274053
0.0260219
0.0249573
0.0241779
0.0236774
0.0235371
0.0239873
0.250616
0.256946
0.241461
0.215292
0.184629
0.153216
0.124214
0.0995479
0.0798404
0.064772
0.0535421
0.0452476
0.0390964
0.0344746
0.0309344
0.0281563
0.025912
0.0240362
0.0224083
0.0209378
0.0195462
0.0181451
0.0166596
0.01547
0.250447
0.257254
0.242697
0.215208
0.181557
0.147762
0.117546
0.0927293
0.0735489
0.0592834
0.048855
0.0412289
0.03558
0.0313087
0.0279941
0.0253413
0.0231382
0.0212252
0.0194729
0.0177633
0.0159655
0.013902
0.0112718
0.00719897
0.250842
0.260486
0.246002
0.215506
0.178446
0.142301
0.111113
0.0863922
0.067881
0.0544466
0.0447749
0.0377459
0.0325333
0.0285662
0.0254567
0.022937
0.0208156
0.0189479
0.0172157
0.0155103
0.0137175
0.0117127
0.00934735
0.00612997
0.252089
0.265942
0.250613
0.216036
0.175238
0.136866
0.104971
0.0805583
0.0628086
0.0501951
0.0412178
0.0347135
0.0298771
0.0261748
0.0232524
0.0208686
0.0188526
0.0170765
0.015438
0.0138442
0.0121977
0.0103945
0.00833493
0.00575445
0.254337
0.273567
0.256294
0.216582
0.171881
0.131482
0.0991478
0.0752201
0.058282
0.0464536
0.0381013
0.0320523
0.0275373
0.0240624
0.0213057
0.0190492
0.0171393
0.0154614
0.013924
0.0124453
0.0109402
0.00932501
0.00754393
0.00545619
0.257995
0.283415
0.262681
0.216981
0.168331
0.12616
0.0936497
0.0703481
0.0542403
0.0431478
0.0353512
0.0296942
0.0254518
0.0221703
0.0195569
0.0174143
0.0156028
0.0140185
0.0125789
0.0112112
0.00984149
0.00840562
0.0068791
0.00518927
0.263826
0.295594
0.269389
0.217102
0.164525
0.12089
0.088458
0.0658963
0.0506203
0.0402105
0.0329052
0.0275848
0.0235734
0.0204563
0.0179672
0.015926
0.0142051
0.0127094
0.0113642
0.0101046
0.00886755
0.00760424
0.0063086
0.00494414
0.273
0.310197
0.27582
0.216584
0.160351
0.115631
0.0835352
0.0618155
0.0473652
0.0375852
0.030713
0.025682
0.0218678
0.0188921
0.0165122
0.0145633
0.0129277
0.011518
0.0102659
0.00911335
0.00800599
0.00690631
0.00581786
0.00472415
0.287169
0.327176
0.280592
0.214984
0.155665
0.110325
0.0788426
0.0580614
0.0444246
0.0352244
0.0287349
0.0239543
0.0203104
0.0174588
0.0151776
0.013315
0.0117617
0.0104367
0.0092769
0.00822985
0.007248
0.00630147
0.00539764
0.00453054
0.308674
0.345824
0.283822
0.212043
0.150323
0.104919
0.0743484
0.0545957
0.0417562
0.0330895
0.0269396
0.0223781
0.0188839
0.0161441
0.0139548
0.012175
0.0107027
0.00946169
0.00839344
0.00744965
0.0065878
0.00578277
0.00504205
0.00436425
0.341645
0.360908
0.284723
0.207207
0.14416
0.0993806
0.0700355
0.0513891
0.0393257
0.03115
0.0253034
0.0209362
0.0175768
0.0149403
0.0128386
0.0111398
0.00974763
0.00859015
0.0076121
0.00676836
0.00601991
0.00534415
0.0047461
0.00422488
0.00618405
0.0364405
0.0784134
0.126776
0.152137
0.195264
0.021173
0.0723657
0.118324
0.167336
0.223598
0.329839
0.0304725
0.0913829
0.14118
0.193891
0.258001
0.346909
0.0381401
0.104214
0.156564
0.211144
0.274037
0.344723
0.0448023
0.113942
0.167738
0.222458
0.281225
0.336811
0.0504265
0.121648
0.17604
0.22972
0.283365
0.327192
0.055035
0.127787
0.182161
0.234129
0.282689
0.31725
0.0586783
0.132577
0.18651
0.236478
0.280387
0.307635
0.0614188
0.136133
0.189363
0.237318
0.277215
0.298791
0.0633199
0.138526
0.190921
0.237049
0.273635
0.290994
0.06444
0.139811
0.191339
0.235953
0.269989
0.284389
0.0648276
0.14003
0.190737
0.234222
0.266521
0.279064
0.0645301
0.139216
0.189196
0.231977
0.263384
0.275067
0.0635828
0.137384
0.186758
0.229268
0.260648
0.272436
0.0619725
0.134542
0.18342
0.226076
0.258296
0.271191
0.0596467
0.130677
0.179132
0.222306
0.256216
0.271332
0.0565622
0.125754
0.173791
0.217778
0.254171
0.27282
0.0526747
0.119697
0.16723
0.212223
0.251763
0.275676
0.0479365
0.112381
0.159197
0.205201
0.248392
0.279806
0.0423042
0.103586
0.149313
0.196073
0.243128
0.284954
0.0357531
0.092896
0.136963
0.183913
0.234628
0.290109
0.0283091
0.0793658
0.120963
0.167308
0.220586
0.292281
0.0193693
0.0602507
0.0984207
0.143763
0.196107
0.280077
0.00504651
0.0275868
0.0621155
0.109377
0.150602
0.168164
0.386207
0.367283
0.280325
0.19994
0.13712
0.0937364
0.0659107
0.0484241
0.0371079
0.0293831
0.0238092
0.0196167
0.0163812
0.0138424
0.0118256
0.0102066
0.00889401
0.00781905
0.0069291
0.0061813
0.00553882
0.00497966
0.00450459
0.00411066
0.41244
0.359281
0.270255
0.190433
0.129399
0.0880964
0.0620069
0.045694
0.0350853
0.0277725
0.0224446
0.0184117
0.0152919
0.0128469
0.0109132
0.00937303
0.00813883
0.0071447
0.00633993
0.00568309
0.00513833
0.00468269
0.00431159
0.00401891
0.398508
0.342267
0.256646
0.179542
0.121395
0.0826248
0.0583694
0.0431982
0.0332464
0.0263067
0.0212012
0.0173154
0.0143053
0.0119511
0.0100987
0.00863588
0.00747835
0.00656252
0.00583911
0.00526735
0.00481126
0.00444574
0.00416059
0.00394655
0.37824
0.32291
0.241556
0.168207
0.113528
0.0774782
0.0550375
0.040936
0.031582
0.0249773
0.0200733
0.0163242
0.0134185
0.011152
0.0093789
0.00799126
0.00690786
0.00606698
0.00542024
0.00492671
0.0045494
0.00426058
0.00404492
0.00389059
0.357551
0.303435
0.226359
0.157151
0.106119
0.0727649
0.0520327
0.0389035
0.0300839
0.0237782
0.019057
0.015435
0.0126285
0.0104464
0.00874964
0.00743429
0.00642171
0.00565165
0.00507602
0.0046529
0.00434379
0.00411856
0.00395809
0.00384827
0.338263
0.285132
0.211942
0.146845
0.0993625
0.0685404
0.049359
0.037093
0.0287448
0.0227047
0.0181492
0.0146451
0.0119322
0.00983027
0.00820612
0.00695927
0.00601337
0.00530925
0.00479839
0.00443716
0.0041853
0.00401116
0.00389387
0.00381669
0.320929
0.268511
0.198784
0.137546
0.0933513
0.0648189
0.0470076
0.0354946
0.0275578
0.0217527
0.0173469
0.0139517
0.0113263
0.00929948
0.00774321
0.00656014
0.00567597
0.00503215
0.00457906
0.00427095
0.00406591
0.0039315
0.00384645
0.00379314
0.305709
0.25381
0.187116
0.129364
0.088108
0.0615878
0.0449622
0.0340972
0.0265166
0.0209183
0.0166474
0.0133521
0.0108074
0.00884993
0.00735597
0.00623116
0.00540293
0.00481295
0.00441003
0.00414617
0.00397831
0.00387396
0.00381232
0.00377621
0.292629
0.241116
0.17702
0.122315
0.0836115
0.058819
0.0432025
0.032889
0.0256145
0.0201977
0.0160479
0.0128434
0.0103723
0.00847771
0.00703985
0.00596705
0.00518822
0.00464487
0.004284
0.00405569
0.00391639
0.00383414
0.00378877
0.00376466
0.28169
0.230437
0.168493
0.116366
0.0798172
0.0564769
0.0417066
0.0318583
0.0248452
0.0195868
0.015545
0.0124224
0.0100175
0.00817893
0.00679045
0.00576283
0.00502622
0.00452167
0.00419446
0.0039933
0.00387483
0.00380811
0.00377397
0.00375752
0.272865
0.221739
0.161483
0.111451
0.0766692
0.0545235
0.0404526
0.0309934
0.0242016
0.0190808
0.0151352
0.0120856
0.00973928
0.00794953
0.00660331
0.00561359
0.00491152
0.00443762
0.00413575
0.00395388
0.00384939
0.00379319
0.00376592
0.00375365
0.266125
0.214966
0.155918
0.107498
0.0741088
0.0529213
0.039419
0.0302817
0.0236769
0.0186754
0.0148145
0.0118292
0.00953373
0.00778539
0.00647404
0.00551467
0.00483923
0.00438783
0.00410342
0.00393388
0.00383756
0.00378679
0.00376259
0.0037522
0.26146
0.210067
0.151721
0.104429
0.0720783
0.051634
0.0385848
0.0297108
0.0232635
0.0183653
0.0145786
0.0116492
0.00939687
0.00768253
0.00639867
0.00546198
0.00480519
0.00436846
0.00409407
0.0039307
0.00383761
0.00378761
0.00376314
0.00375224
0.258886
0.207004
0.14882
0.102171
0.070523
0.050627
0.0379297
0.0292683
0.0229533
0.0181447
0.0144226
0.0115413
0.00932484
0.00763742
0.00637388
0.00545228
0.00480591
0.00437556
0.00410491
0.00394212
0.0038477
0.00379489
0.00376706
0.00375329
0.258463
0.205768
0.147152
0.100657
0.0693907
0.0498671
0.0374333
0.0289414
0.0227378
0.018007
0.0143414
0.0115012
0.00931392
0.00764597
0.00639418
0.00547934
0.00483742
0.00440811
0.00413458
0.00396707
0.00386701
0.00380824
0.00377446
0.00375552
0.260276
0.206374
0.146681
0.0998339
0.0686316
0.0493212
0.037075
0.0287168
0.0226074
0.017945
0.0143291
0.011523
0.00935739
0.00770204
0.00645764
0.00554606
0.00490115
0.00446481
0.00418233
0.00400515
0.00389543
0.0038274
0.00378518
0.00375905
0.264525
0.208871
0.147339
0.0996357
0.0682118
0.0489637
0.0368353
0.0285804
0.022552
0.0179507
0.0143783
0.0116014
0.00945359
0.00780835
0.00656648
0.00564966
0.00499467
0.00454513
0.00424815
0.00405664
0.00393342
0.0038529
0.00379963
0.00376412
0.271413
0.213322
0.149089
0.0999859
0.0680657
0.0487595
0.0366952
0.028519
0.0225607
0.0180159
0.0144846
0.0117346
0.00960228
0.00796203
0.00671603
0.00578844
0.00511768
0.00464931
0.00433265
0.00412232
0.00398177
0.00388555
0.00381853
0.00377126
0.28119
0.219789
0.151856
0.100814
0.0681257
0.048663
0.0366249
0.0285131
0.0226207
0.0181315
0.0146413
0.0119175
0.00979766
0.00815846
0.0069045
0.00596175
0.00527034
0.0047781
0.00443693
0.0042034
0.00404169
0.00392645
0.00384284
0.00378116
0.294077
0.228296
0.155506
0.102007
0.0683213
0.048625
0.036593
0.0285422
0.0227172
0.0182862
0.0148389
0.0121419
0.0100341
0.00839455
0.00713022
0.00616902
0.00545305
0.00493265
0.00456257
0.00430157
0.00411476
0.00397698
0.00387372
0.0037946
0.310118
0.238722
0.159776
0.103384
0.0685451
0.0485881
0.0365657
0.0285843
0.0228347
0.0184681
0.0150684
0.012401
0.0103067
0.00866694
0.00739118
0.00640951
0.00566621
0.00511426
0.0047114
0.00441884
0.00420287
0.00403877
0.00391244
0.00381245
0.328033
0.250524
0.164137
0.104645
0.0686419
0.0484866
0.0365074
0.0286165
0.022957
0.0186652
0.0153205
0.0126878
0.0106101
0.00897169
0.00768484
0.006682
0.0059098
0.00532391
0.00488512
0.00455729
0.00430816
0.00411378
0.00396039
0.00383567
0.343148
0.262397
0.167562
0.105289
0.0684565
0.0482575
0.0363864
0.0286178
0.0230696
0.0188662
0.015586
0.0129949
0.0109386
0.00930455
0.00800827
0.00698485
0.00618343
0.00556237
0.0050855
0.00471937
0.00443335
0.00420415
0.00401777
0.00386444
0.330217
0.269098
0.168143
0.104823
0.0678719
0.0478587
0.0361811
0.0285757
0.0231614
0.0190617
0.0158571
0.0133159
0.0112869
0.00966153
0.00835875
0.00731661
0.00648682
0.00583045
0.00531414
0.00490709
0.00458032
0.00431129
0.00408618
0.00389918
0.00646713
0.00949008
0.0158257
0.0220469
0.0350596
0.117381
0.019784
0.0260383
0.0385142
0.0484604
0.0812648
0.162224
0.0236529
0.0349977
0.0527581
0.0706668
0.120749
0.199347
0.026496
0.0433347
0.065349
0.0917206
0.147802
0.209532
0.0312905
0.0519703
0.077381
0.110147
0.164668
0.208473
0.0344462
0.0601122
0.0883921
0.124708
0.173968
0.202947
0.0369408
0.0677068
0.0980807
0.135853
0.177405
0.195428
0.039021
0.0747005
0.106399
0.144046
0.17739
0.187962
0.0407549
0.0809998
0.113463
0.149745
0.17576
0.180983
0.0421727
0.0864905
0.119381
0.153462
0.173304
0.174692
0.0433015
0.0910484
0.124255
0.155621
0.171003
0.169143
0.0441126
0.0945729
0.128108
0.156874
0.16908
0.164461
0.0444873
0.0970492
0.130954
0.157681
0.167683
0.160812
0.0444137
0.0984557
0.132838
0.158324
0.167
0.158371
0.0438894
0.0987658
0.133797
0.158921
0.167147
0.157496
0.0429086
0.0980368
0.133848
0.159512
0.168013
0.158
0.041449
0.096254
0.132959
0.160062
0.169996
0.160351
0.0394726
0.0934047
0.131029
0.160356
0.172962
0.164676
0.0369179
0.089407
0.127849
0.159867
0.176345
0.170532
0.0336816
0.0840498
0.123059
0.157687
0.178938
0.176937
0.0295153
0.0768645
0.115992
0.152534
0.178614
0.181909
0.0249972
0.0667784
0.105427
0.142541
0.173061
0.181407
0.0181587
0.0511626
0.0885033
0.124235
0.156297
0.168247
0.00572314
0.025044
0.0571702
0.0904259
0.120907
0.117591
0.304836
0.262785
0.165667
0.103252
0.0668963
0.0472909
0.035887
0.0284833
0.0232254
0.0192453
0.0161281
0.0136456
0.0116508
0.0100395
0.00873428
0.0076764
0.00682022
0.00612932
0.00557296
0.00512277
0.00475141
0.00443729
0.0041674
0.00394071
0.277664
0.247442
0.160831
0.10077
0.0656006
0.0465737
0.0355081
0.0283402
0.0232588
0.0194136
0.0163952
0.0139806
0.0120274
0.0104362
0.00913358
0.00806393
0.00718427
0.00646048
0.00586414
0.00536907
0.00494944
0.00458484
0.00426396
0.0039898
0.254724
0.226645
0.153261
0.09735
0.06401
0.0457399
0.0350572
0.0281512
0.0232628
0.0195662
0.016657
0.0143188
0.0124148
0.0108502
0.00955581
0.0084791
0.0075796
0.0068253
0.00618971
0.00564852
0.00517741
0.0047576
0.00438088
0.00404921
0.235553
0.206926
0.143311
0.0929771
0.0620637
0.0447552
0.0345476
0.0279231
0.0232435
0.0197049
0.0169134
0.0146594
0.0128118
0.0112805
0.0100002
0.00892155
0.00800648
0.00722479
0.00655161
0.0059642
0.00543951
0.00496027
0.00452099
0.00412051
0.219027
0.189193
0.133331
0.0880278
0.0597996
0.0436246
0.0339673
0.0276607
0.0232047
0.0198324
0.0171658
0.0150029
0.0132181
0.0117264
0.0104661
0.00939099
0.00846506
0.00765977
0.00695155
0.00631875
0.00573913
0.00519628
0.00468682
0.00420462
0.204534
0.173555
0.123915
0.0832216
0.0573755
0.042386
0.0333309
0.027375
0.0231534
0.0199534
0.0174172
0.0153509
0.0136348
0.0121884
0.0109539
0.00988771
0.00895594
0.00813138
0.00739138
0.00671485
0.00607956
0.00546903
0.00488121
0.00430279
0.191511
0.159909
0.115347
0.0787344
0.0550741
0.0411324
0.0326744
0.0270829
0.023099
0.0200745
0.0176725
0.0157071
0.0140645
0.0126686
0.0114652
0.0104133
0.00948073
0.0086415
0.00787343
0.00715537
0.00646429
0.00578234
0.00510762
0.00441661
0.179845
0.148104
0.107727
0.0746413
0.0529503
0.0399703
0.0320393
0.0267973
0.0230536
0.0202051
0.017939
0.0160775
0.0145122
0.0131713
0.0120038
0.0109712
0.0100429
0.00919356
0.00840124
0.00764413
0.00689751
0.00614075
0.00537022
0.00454776
0.169519
0.137987
0.101058
0.0709794
0.0510327
0.0389234
0.0314649
0.0265433
0.0230311
0.0203566
0.0182262
0.0164703
0.0149855
0.0137037
0.0125769
0.0115685
0.0106492
0.00979421
0.00898127
0.00818746
0.0073856
0.00655071
0.00567467
0.004698
0.16051
0.129409
0.0953161
0.0677685
0.0493384
0.0380061
0.0309742
0.0263496
0.0230479
0.0205422
0.0185459
0.0168965
0.0154951
0.0142768
0.0131958
0.0122171
0.0113123
0.0104565
0.00962674
0.00879834
0.00794108
0.00702427
0.00603132
0.00486979
0.152799
0.12223
0.0904616
0.0650182
0.0478804
0.037227
0.0305791
0.0262272
0.0231211
0.0207757
0.018911
0.0173691
0.0160547
0.0149054
0.0138772
0.0129363
0.0120542
0.0112056
0.0103656
0.00950665
0.00859457
0.00759171
0.00646712
0.00507151
0.146374
0.116343
0.0864599
0.06274
0.0466687
0.036595
0.0302922
0.0261776
0.0232599
0.0210693
0.0193346
0.0179023
0.0166801
0.0156078
0.0146432
0.0137533
0.0129096
0.0120857
0.011254
0.0103828
0.009431
0.00834939
0.00707881
0.00535946
0.141248
0.111666
0.083283
0.0609389
0.0457238
0.036122
0.0301476
0.0262206
0.0234782
0.0214366
0.0198309
0.0185112
0.017388
0.0164037
0.0155181
0.0147002
0.0139229
0.0131606
0.0123866
0.0115699
0.0106679
0.00961296
0.00827198
0.00618573
0.137468
0.108163
0.080921
0.0596295
0.0450655
0.0358629
0.0301158
0.026373
0.0237911
0.0218922
0.0204145
0.0192106
0.0181938
0.0173098
0.0165217
0.015802
0.0151286
0.0144829
0.0138507
0.0132248
0.0126078
0.0120256
0.0115928
0.0116424
0.135146
0.105846
0.0793866
0.0588435
0.0447626
0.0358193
0.0302386
0.0266528
0.0242159
0.0224522
0.0211006
0.0200149
0.0191112
0.0183387
0.0176649
0.0170682
0.0165339
0.0160541
0.0156298
0.015274
0.0150133
0.0149039
0.0150797
0.0157096
0.13457
0.104895
0.0787534
0.058654
0.0448237
0.0360167
0.0305518
0.0270855
0.0247736
0.0231355
0.0219062
0.0209395
0.0201533
0.0195005
0.018954
0.0184992
0.0181307
0.0178518
0.0176767
0.0176309
0.0177398
0.0180489
0.0186569
0.0195944
0.135481
0.105111
0.0790784
0.0591241
0.0453394
0.0365313
0.031097
0.0277033
0.0254907
0.0239644
0.0228511
0.0220016
0.0213343
0.0208056
0.0203937
0.0200915
0.0199027
0.019841
0.0199259
0.0201877
0.0206559
0.0213437
0.0223034
0.023489
0.138956
0.107132
0.0805789
0.0604048
0.0464179
0.0374435
0.0319314
0.028549
0.0264006
0.024967
0.0239596
0.0232223
0.0226719
0.022267
0.0219907
0.0218429
0.0218357
0.0219788
0.0223193
0.0228841
0.0236796
0.0247045
0.0259779
0.0274033
0.145103
0.111224
0.0835535
0.0627191
0.0482247
0.0388734
0.033143
0.029683
0.027549
0.0261798
0.0252626
0.0246284
0.024189
0.0239028
0.0237569
0.0237572
0.0239036
0.0242492
0.0248289
0.0256639
0.0267563
0.028088
0.0296569
0.0313309
0.153641
0.117657
0.08838
0.0663972
0.0510144
0.0410064
0.0348633
0.0311984
0.0290028
0.0276548
0.0268031
0.026257
0.0259177
0.0257408
0.0257151
0.0258284
0.0261218
0.0266435
0.0274247
0.0284935
0.0298473
0.0314568
0.0333084
0.0352447
0.162713
0.126052
0.0953025
0.0718367
0.0551509
0.0441255
0.0372972
0.0332416
0.0308671
0.029471
0.0286442
0.0281617
0.0279058
0.0278252
0.0278882
0.0280973
0.0285104
0.0291629
0.0300999
0.031355
0.0329252
0.034776
0.0368916
0.0391018
0.167697
0.134655
0.103899
0.0792791
0.0610752
0.0486462
0.040769
0.0360484
0.0333117
0.0317533
0.0308831
0.0304225
0.0302228
0.0302175
0.030337
0.0306205
0.0311095
0.0318425
0.0328767
0.0342557
0.0359823
0.038023
0.0403691
0.0428561
0.163292
0.140169
0.112451
0.0881953
0.0689852
0.0550507
0.045763
0.0400038
0.036618
0.0347056
0.0336722
0.0331608
0.0329736
0.0330055
0.0331591
0.0334822
0.0340004
0.0347561
0.0358166
0.0372401
0.0390445
0.0412028
0.0437224
0.0464745
0.142363
0.136217
0.118142
0.096662
0.07798
0.0632469
0.0526155
0.0455546
0.0411844
0.0386363
0.0372424
0.0365534
0.0362971
0.0363239
0.0364776
0.0368026
0.0373077
0.0380271
0.0390354
0.0404087
0.0421886
0.0443661
0.046972
0.0499563
)
;

boundaryField
{
    rotor
    {
        type            kqRWallFunction;
        value           nonuniform List<scalar> 
144
(
0.00410824
0.0101563
0.0203374
0.0314035
0.0411593
0.052428
0.00410824
0.0166117
0.0206255
0.0226664
0.0240667
0.0249285
0.0262082
0.0279083
0.0293494
0.0304918
0.0313277
0.0318694
0.0320987
0.0319788
0.0314822
0.0306072
0.0293633
0.0277757
0.0259122
0.0249595
0.0234867
0.0213266
0.0170802
0.00419528
0.00419528
0.0103012
0.025026
0.0471936
0.0741926
0.110061
0.00407755
0.00990191
0.0275664
0.0556025
0.0876955
0.115574
0.00407755
0.0166941
0.021154
0.0233638
0.0249559
0.026194
0.0278679
0.0292266
0.0302196
0.0308361
0.0310675
0.0309798
0.0305127
0.0297882
0.0288468
0.0276652
0.0262342
0.0249524
0.024387
0.0234444
0.0219826
0.0200204
0.0162035
0.00423513
0.00423513
0.00872243
0.014397
0.0187312
0.0268206
0.0853362
0.00618405
0.0364405
0.0784134
0.126776
0.152137
0.195264
0.00618405
0.021173
0.0304725
0.0381401
0.0448023
0.0504265
0.055035
0.0586783
0.0614188
0.0633199
0.06444
0.0648276
0.0645301
0.0635828
0.0619725
0.0596467
0.0565622
0.0526747
0.0479365
0.0423042
0.0357531
0.0283091
0.0193693
0.00504651
0.00504651
0.0275868
0.0621155
0.109377
0.150602
0.168164
0.00646713
0.00949008
0.0158257
0.0220469
0.0350596
0.117381
0.00646713
0.019784
0.0236529
0.026496
0.0312905
0.0344462
0.0369408
0.039021
0.0407549
0.0421727
0.0433015
0.0441126
0.0444873
0.0444137
0.0438894
0.0429086
0.041449
0.0394726
0.0369179
0.0336816
0.0295153
0.0249972
0.0181587
0.00572314
0.00572314
0.025044
0.0571702
0.0904259
0.120907
0.117591
)
;
    }
    freestream
    {