/*--------------------------------*- C++ -*----------------------------------*\
  =========                 |
  \\      /  F ield         | OpenFOAM: The Open Source CFD Toolbox
   \\    /   O peration     | Website:  https://openfoam.org
    \\  /    A nd           | Version:  11
     \\/     M anipulation  |
\*---------------------------------------------------------------------------*/
FoamFile
{
    format      ascii;
    class       volScalarField;
    location    "0.36";
    object      p;
}
// * * * * * * * * * * * * * * * * * * * * * * * * * * * * * * * * * * * * * //

dimensions      [0 2 -2 0 0 0 0];

internalField   nonuniform List<scalar> 
2880
(
-0.244305
-0.237687
-0.240111
-0.245901
-0.256447
-0.276847
-0.245739
-0.239644
-0.243889
-0.25157
-0.262897
-0.286351
-0.24872
-0.242384
-0.248488
-0.257461
-0.267959
-0.285473
-0.250885
-0.244621
-0.252088
-0.26138
-0.270939
-0.283622
-0.250362
-0.245971
-0.254452
-0.263658
-0.272583
-0.282269
-0.24819
-0.246957
-0.256071
-0.265089
-0.273524
-0.281227
-0.247735
-0.248316
-0.25738
-0.266105
-0.274011
-0.280275
-0.248592
-0.250069
-0.258537
-0.266887
-0.274151
-0.279367
-0.249446
-0.251859
-0.259566
-0.26745
-0.27407
-0.278519
-0.25018
-0.253464
-0.26043
-0.267802
-0.273851
-0.277737
-0.250746
-0.25482
-0.26107
-0.267962
-0.273524
-0.27702
-0.25116
-0.255884
-0.26145
-0.267935
-0.273108
-0.27635
-0.251426
-0.256614
-0.261556
-0.267723
-0.272608
-0.275702
-0.251554
-0.257011
-0.261386
-0.267326
-0.27202
-0.275043
-0.25157
-0.25709
-0.260945
-0.266741
-0.271328
-0.27432
-0.251529
-0.256887
-0.26025
-0.265967
-0.270504
-0.273464
-0.251517
-0.256454
-0.259333
-0.264999
-0.269506
-0.272373
-0.251467
-0.255838
-0.258239
-0.263824
-0.26827
-0.270912
-0.250265
-0.25508
-0.25703
-0.262425
-0.266714
-0.268897
-0.247762
-0.254364
-0.255844
-0.260806
-0.264736
-0.266021
-0.246682
-0.254136
-0.254933
-0.259017
-0.262192
-0.261785
-0.248055
-0.254618
-0.254467
-0.257076
-0.25871
-0.255369
-0.250345
-0.255466
-0.254269
-0.254698
-0.253534
-0.246102
-0.251435
-0.255888
-0.253516
-0.251379
-0.246602
-0.235837
-0.196309
-0.176132
-0.156059
-0.136271
-0.117394
-0.0991214
-0.0818752
-0.0662122
-0.0525425
-0.0403542
-0.0293501
-0.0194971
-0.010622
-0.00236175
0.00547157
0.0129689
0.0201363
0.0269578
0.0334136
0.0394516
0.0452446
0.0527917
0.0659434
0.0669307
-0.226861
-0.200265
-0.17422
-0.150743
-0.129684
-0.110566
-0.0932326
-0.0776224
-0.0639194
-0.0519215
-0.0413637
-0.032213
-0.0236938
-0.0157369
-0.00831258
-0.00113415
0.00589718
0.0127328
0.0193433
0.02566
0.031719
0.0388171
0.0497835
0.0528937
-0.250062
-0.222651
-0.194349
-0.168197
-0.145013
-0.124787
-0.106603
-0.0903344
-0.0763606
-0.0642847
-0.0538872
-0.0448602
-0.037007
-0.0299612
-0.0230759
-0.016113
-0.00917771
-0.00231416
0.00458605
0.0115626
0.0183462
0.0255912
0.0348422
0.0396997
-0.264754
-0.241202
-0.214061
-0.18707
-0.162285
-0.140335
-0.12137
-0.105355
-0.0914736
-0.0792177
-0.0688432
-0.0602507
-0.0527281
-0.0455248
-0.0385257
-0.0320568
-0.0256448
-0.0186621
-0.011282
-0.00365157
0.00421518
0.0124106
0.0210326
0.0287231
-0.272453
-0.254997
-0.231254
-0.205646
-0.180594
-0.157649
-0.137572
-0.120456
-0.106117
-0.0948966
-0.08632
-0.0791535
-0.0725539
-0.0660427
-0.059694
-0.0529974
-0.0454476
-0.0371777
-0.0284653
-0.0197033
-0.0107843
-0.00125156
0.00810015
0.0207882
-0.276078
-0.26385
-0.244428
-0.221714
-0.198183
-0.175594
-0.155204
-0.13747
-0.122619
-0.110878
-0.101669
-0.0946088
-0.089495
-0.0857236
-0.0820845
-0.0774703
-0.0712798
-0.0632263
-0.0533311
-0.0415755
-0.0284983
-0.0143318
-0.00134365
0.0124843
-0.277683
-0.268973
-0.253514
-0.234203
-0.213162
-0.192138
-0.172411
-0.154657
-0.139472
-0.127055
-0.117202
-0.109791
-0.104446
-0.100563
-0.0973356
-0.0940025
-0.0899846
-0.0845651
-0.0767872
-0.0658785
-0.0517611
-0.0339924
-0.0150615
0.00672393
-0.278296
-0.271816
-0.259511
-0.243396
-0.225107
-0.20616
-0.187695
-0.170504
-0.15524
-0.142174
-0.131492
-0.123154
-0.116771
-0.111937
-0.10817
-0.104817
-0.101088
-0.0961157
-0.0890149
-0.078964
-0.0653419
-0.0471197
-0.0251934
0.00267464
-0.278387
-0.2734
-0.263554
-0.250235
-0.234641
-0.217989
-0.201166
-0.184912
-0.169824
-0.156283
-0.144549
-0.134712
-0.126681
-0.120144
-0.114748
-0.110044
-0.105322
-0.0997521
-0.0924691
-0.0825854
-0.0692542
-0.05143
-0.0286766
-0.000776169
-0.278202
-0.274325
-0.266487
-0.255664
-0.242692
-0.228517
-0.213723
-0.19887
-0.184431
-0.17076
-0.158116
-0.146669
-0.136489
-0.127485
-0.119465
-0.11214
-0.105054
-0.097576
-0.0889688
-0.0784115
-0.0650761
-0.0482023
-0.0274688
-0.00438725
-0.277896
-0.274925
-0.268821
-0.260331
-0.250064
-0.238572
-0.226256
-0.213416
-0.200327
-0.18722
-0.174266
-0.161611
-0.149411
-0.137773
-0.126553
-0.115596
-0.104768
-0.0937703
-0.0821994
-0.0695414
-0.0552788
-0.0388573
-0.0198543
-0.00079329
-0.277553
-0.275388
-0.270877
-0.264651
-0.257194
-0.248683
-0.239378
-0.229311
-0.218543
-0.207122
-0.195035
-0.182336
-0.169181
-0.155704
-0.14158
-0.126754
-0.111555
-0.0960371
-0.0801475
-0.0638504
-0.0471192
-0.0294548
-0.00693366
0.0146768
-0.277207
-0.275782
-0.272823
-0.268836
-0.264239
-0.259089
-0.253445
-0.247228
-0.240196
-0.231996
-0.222312
-0.210935
-0.197649
-0.181352
-0.162908
-0.143463
-0.123337
-0.102815
-0.0822212
-0.0619029
-0.0418607
-0.0203718
0.004229
0.0264873
-0.276842
-0.276081
-0.274614
-0.272873
-0.271301
-0.269941
-0.268596
-0.266769
-0.263851
-0.259118
-0.251869
-0.24145
-0.227301
-0.209896
-0.189695
-0.167097
-0.142624
-0.117206
-0.0918472
-0.0676258
-0.0454859
-0.0263175
-0.0120745
-0.00571171
-0.276405
-0.276187
-0.276113
-0.276554
-0.278002
-0.280465
-0.283535
-0.286519
-0.28845
-0.2882
-0.284718
-0.277041
-0.264714
-0.247816
-0.226313
-0.200576
-0.17173
-0.14122
-0.110749
-0.082069
-0.0569464
-0.0378242
-0.0283402
-0.0244614
-0.275803
-0.275937
-0.277073
-0.279523
-0.283975
-0.290293
-0.298001
-0.306163
-0.313549
-0.318723
-0.320098
-0.316222
-0.306249
-0.289541
-0.266275
-0.237198
-0.203701
-0.16787
-0.132081
-0.0984695
-0.0689208
-0.0455882
-0.030736
-0.020739
-0.274904
-0.275106
-0.277153
-0.281434
-0.28866
-0.298643
-0.310797
-0.32403
-0.336788
-0.347182
-0.353169
-0.353009
-0.344942
-0.328607
-0.304055
-0.272269
-0.235261
-0.195611
-0.155789
-0.117959
-0.0839527
-0.0552135
-0.0323472
-0.0131075
-0.27354
-0.273448
-0.27609
-0.281885
-0.291433
-0.304613
-0.320673
-0.338279
-0.355541
-0.370158
-0.379748
-0.382053
-0.3755
-0.35942
-0.33405
-0.30076
-0.261867
-0.21996
-0.177644
-0.137211
-0.100231
-0.0674625
-0.0383671
-0.0118589
-0.271518
-0.270711
-0.273601
-0.280312
-0.291615
-0.307312
-0.326336
-0.34712
-0.367434
-0.384677
-0.396176
-0.399592
-0.393406
-0.376986
-0.350816
-0.31655
-0.27657
-0.233523
-0.19012
-0.148549
-0.109984
-0.0748494
-0.0425433
-0.0131921
-0.268628
-0.266642
-0.269276
-0.276327
-0.288694
-0.30593
-0.326786
-0.349332
-0.371048
-0.389105
-0.400719
-0.403667
-0.396506
-0.378852
-0.35154
-0.316444
-0.276026
-0.232952
-0.189917
-0.148866
-0.110355
-0.074798
-0.0430891
-0.0143511
-0.264485
-0.26103
-0.262933
-0.269681
-0.282316
-0.300167
-0.321693
-0.344622
-0.366178
-0.383392
-0.393541
-0.394505
-0.385175
-0.365632
-0.337012
-0.301398
-0.261401
-0.219601
-0.178741
-0.140124
-0.104043
-0.0708152
-0.0413714
-0.0142981
-0.258428
-0.25392
-0.254748
-0.260528
-0.27269
-0.290325
-0.31148
-0.333596
-0.353661
-0.368654
-0.375934
-0.373772
-0.361586
-0.339837
-0.310076
-0.274634
-0.236085
-0.196782
-0.159966
-0.125622
-0.0928012
-0.0637196
-0.0377271
-0.012758
-0.251335
-0.246355
-0.245493
-0.249618
-0.260664
-0.277317
-0.29726
-0.317521
-0.334932
-0.346482
-0.349888
-0.343942
-0.328558
-0.304801
-0.274645
-0.240528
-0.204863
-0.169637
-0.136364
-0.106159
-0.0788921
-0.0542043
-0.0315164
-0.00927323
-0.253011
-0.241415
-0.236609
-0.238237
-0.247557
-0.26256
-0.28042
-0.297856
-0.311556
-0.318737
-0.317614
-0.307603
-0.289324
-0.264362
-0.2349
-0.203216
-0.171292
-0.140593
-0.112152
-0.0864594
-0.0634881
-0.042813
-0.0230391
-0.00381337
-0.396503
-0.400605
-0.390274
-0.374731
-0.354868
-0.332945
-0.393417
-0.398805
-0.389241
-0.376637
-0.360097
-0.338533
-0.387455
-0.396086
-0.387729
-0.377472
-0.363155
-0.342898
-0.386932
-0.394354
-0.387525
-0.378832
-0.365859
-0.345802
-0.392591
-0.394387
-0.388846
-0.381338
-0.369121
-0.348382
-0.396456
-0.395693
-0.391247
-0.384779
-0.373246
-0.352059
-0.398099
-0.397477
-0.394335
-0.388919
-0.378223
-0.357228
-0.399682
-0.399407
-0.397782
-0.393589
-0.38392
-0.363687
-0.401243
-0.40138
-0.401391
-0.398624
-0.390113
-0.371039
-0.403039
-0.403277
-0.405007
-0.403851
-0.396549
-0.378911
-0.404846
-0.404968
-0.408506
-0.409108
-0.402997
-0.387025
-0.40642
-0.406349
-0.411782
-0.414259
-0.409237
-0.395082
-0.407622
-0.407354
-0.414757
-0.419173
-0.415049
-0.403241
-0.408355
-0.407962
-0.417409
-0.423722
-0.420359
-0.411394
-0.408537
-0.4081
-0.419794
-0.427815
-0.425291
-0.419112
-0.408164
-0.40764
-0.421941
-0.431453
-0.429379
-0.426706
-0.407431
-0.406659
-0.423876
-0.434731
-0.432651
-0.434453
-0.409022
-0.405911
-0.425712
-0.437821
-0.435404
-0.442835
-0.414004
-0.406617
-0.427519
-0.440971
-0.438078
-0.452759
-0.417077
-0.407779
-0.428947
-0.44442
-0.441273
-0.465351
-0.416261
-0.407995
-0.429454
-0.44803
-0.445844
-0.481544
-0.411925
-0.406402
-0.428491
-0.45069
-0.452973
-0.501764
-0.405452
-0.403423
-0.426506
-0.451471
-0.463229
-0.529441
-0.402312
-0.40139
-0.425769
-0.452531
-0.477505
-0.595919
-0.278479
-0.241876
-0.229566
-0.227751
-0.234651
-0.247264
-0.26224
-0.275889
-0.284954
-0.28712
-0.281285
-0.267605
-0.247289
-0.222223
-0.194477
-0.165913
-0.137998
-0.111783
-0.0879052
-0.0665573
-0.0475883
-0.0302394
-0.0126952
0.00340276
-0.287375
-0.243897
-0.224761
-0.218985
-0.222823
-0.232397
-0.24356
-0.252467
-0.25625
-0.253254
-0.243105
-0.226609
-0.20533
-0.181099
-0.155633
-0.130339
-0.106265
-0.0841145
-0.0642567
-0.0466837
-0.0310629
-0.0162943
-0.000273594
0.0124915
-0.292163
-0.246564
-0.222128
-0.212265
-0.212583
-0.218268
-0.224633
-0.22814
-0.226474
-0.218645
-0.204966
-0.186643
-0.16526
-0.14238
-0.119325
-0.0971087
-0.0764516
-0.0578118
-0.041325
-0.0268279
-0.0138697
-0.00103667
0.0140428
0.0232857
-0.29706
-0.250144
-0.221392
-0.207531
-0.203713
-0.204552
-0.205507
-0.203419
-0.19652
-0.184505
-0.168163
-0.148814
-0.127858
-0.106515
-0.0857341
-0.0662119
-0.0484349
-0.0326732
-0.0188861
-0.00680646
0.00408482
0.0155171
0.0301309
0.0357013
-0.302684
-0.254718
-0.222297
-0.20417
-0.195475
-0.190977
-0.186319
-0.178696
-0.167014
-0.151548
-0.133311
-0.113516
-0.0932618
-0.0734155
-0.054621
-0.0373445
-0.0218952
-0.00839624
0.00331751
0.0135653
0.0228736
0.0333015
0.0477697
0.0495815
-0.309074
-0.260138
-0.224177
-0.20126
-0.187463
-0.177428
-0.167034
-0.154103
-0.138238
-0.120065
-0.100567
-0.0806978
-0.0612258
-0.0427207
-0.0255901
-0.0101208
0.00351607
0.0153076
0.0254875
0.0343707
0.0424662
0.0521796
0.0666834
0.0647512
-0.316185
-0.265942
-0.226034
-0.198392
-0.179354
-0.163526
-0.147397
-0.129607
-0.110264
-0.0900616
-0.0697724
-0.0500423
-0.0313438
-0.013998
0.00177864
0.0158408
0.0281202
0.0386754
0.0477559
0.0556298
0.0627846
0.0719842
0.0866362
0.0811224
-0.323728
-0.271693
-0.227429
-0.195293
-0.170584
-0.148734
-0.127125
-0.105109
-0.0829933
-0.0613246
-0.0405917
-0.0211401
-0.00317922
0.0131781
0.02787
0.0408604
0.0521539
0.061847
0.0701624
0.0772923
0.0837043
0.0925272
0.10743
0.0986949
-0.331185
-0.276791
-0.228184
-0.191215
-0.160419
-0.132554
-0.105976
-0.0804367
-0.0561914
-0.03353
-0.0126344
0.00643016
0.0236831
0.0391844
0.0529965
0.0651675
0.0757535
0.0848637
0.0926653
0.099255
0.105079
0.113604
0.128829
0.117462
-0.337936
-0.280732
-0.227768
-0.185306
-0.148185
-0.114599
-0.0837059
-0.0553486
-0.0295598
-0.00631813
0.014495
0.0330667
0.0496114
0.0643313
0.0773885
0.0888991
0.0989575
0.107674
0.115145
0.121356
0.126727
0.13501
0.150589
0.137443
-0.343607
-0.283408
-0.225542
-0.176816
-0.133356
-0.0945727
-0.060079
-0.0295759
-0.00277443
0.0206752
0.0411738
0.0591306
0.0749227
0.0888675
0.101208
0.112116
0.121722
0.130137
0.137396
0.143356
0.148402
0.156497
0.172439
0.158736
-0.348133
-0.284773
-0.220802
-0.165073
-0.115524
-0.0722147
-0.0348472
-0.00283049
0.0244935
0.0478015
0.0677528
0.084947
0.0998935
0.113
0.124573
0.134837
0.143956
0.152055
0.15914
0.164975
0.169864
0.177811
0.19399
0.181589
-0.351383
-0.284462
-0.21276
-0.149518
-0.0943498
-0.0472663
-0.00774739
0.0251814
0.052564
0.0753913
0.0945547
0.110812
0.124776
0.13692
0.1476
0.157079
0.165559
0.173193
0.180009
0.185794
0.190746
0.19835
0.213902
0.206616
-0.352985
-0.281539
-0.200588
-0.12972
-0.0695522
-0.0194739
0.0214866
0.0547456
0.0817366
0.103747
0.121875
0.137005
0.149823
0.160845
0.17045
0.17892
0.186475
0.193286
0.199441
0.204834
0.209373
0.214802
0.226304
0.234662
-0.352439
-0.27485
-0.183647
-0.105345
-0.040863
0.0114262
0.0531199
0.0861289
0.112278
0.133133
0.149975
0.163788
0.175305
0.185058
0.193425
0.200676
0.207006
0.212565
0.217449
0.221545
0.224286
0.225997
0.233837
0.261177
-0.349262
-0.26328
-0.161278
-0.0759599
-0.00795399
0.0457136
0.0874029
0.119561
0.144402
0.163756
0.179064
0.191388
0.201487
0.209892
0.21697
0.222977
0.228095
0.232469
0.23615
0.238799
0.239909
0.242459
0.257306
0.273746
-0.342816
-0.245511
-0.132627
-0.0409947
0.0295616
0.0836678
0.12455
0.155209
0.17825
0.195742
0.209267
0.219949
0.228546
0.235575
0.241392
0.246244
0.250313
0.25375
0.256564
0.258331
0.258926
0.263048
0.281406
0.288974
-0.331866
-0.219844
-0.0967347
0.00018659
0.0720835
0.125532
0.164706
0.193139
0.213856
0.229118
0.240621
0.249511
0.25653
0.26217
0.266767
0.270554
0.273707
0.276368
0.278513
0.279667
0.279918
0.284665
0.304247
0.307426
-0.314449
-0.18409
-0.0524821
0.0482537
0.119959
0.171447
0.207864
0.233347
0.251175
0.263819
0.27305
0.280003
0.285372
0.289605
0.293005
0.295782
0.298096
0.30007
0.301641
0.302297
0.302209
0.307082
0.326983
0.327867
-0.289003
-0.135773
0.00139287
0.103862
0.173409
0.221439
0.253966
0.275651
0.290022
0.299671
0.306391
0.311265
0.314908
0.317705
0.319913
0.321709
0.323223
0.324549
0.325583
0.325772
0.325323
0.330056
0.349738
0.349275
-0.257264
-0.0720517
0.0665597
0.167601
0.232667
0.275378
0.302732
0.319756
0.330111
0.336408
0.340395
0.343058
0.344901
0.346226
0.347234
0.348057
0.348785
0.349476
0.349983
0.349717
0.348907
0.353363
0.372458
0.371162
-0.223465
0.0138452
0.145892
0.240288
0.297589
0.332846
0.353681
0.365204
0.371023
0.373656
0.374728
0.375073
0.375056
0.374881
0.37468
0.374534
0.374487
0.374551
0.374538
0.373838
0.372691
0.376788
0.394995
0.39317
-0.172955
0.138333
0.243626
0.32218
0.367452
0.393002
0.406043
0.411334
0.412202
0.410945
0.408983
0.406945
0.405034
0.403345
0.401938
0.400832
0.400021
0.399469
0.398949
0.39784
0.396395
0.400089
0.417174
0.415032
-0.0112702
0.312992
0.36052
0.411441
0.440397
0.454377
0.4587
0.457286
0.452974
0.447728
0.442697
0.438268
0.434468
0.43128
0.428685
0.426642
0.425089
0.42394
0.422934
0.421451
0.419757
0.423029
0.438811
0.436519
1.30463
1.3242
1.34774
1.38629
1.40577
1.4511
1.30487
1.3221
1.34129
1.36822
1.34717
1.31968
1.30499
1.31917
1.33225
1.34807
1.31378
1.24791
1.30477
1.31642
1.32334
1.329
1.28777
1.21342
1.30417
1.31404
1.31545
1.31264
1.26882
1.19757
1.30313
1.31165
1.30838
1.29899
1.25506
1.18983
1.30165
1.3088
1.3018
1.28754
1.24469
1.18533
1.29979
1.30533
1.2955
1.27776
1.23655
1.18255
1.29766
1.30133
1.28945
1.26927
1.22981
1.18059
1.29537
1.29699
1.2837
1.26186
1.22389
1.17851
1.29299
1.29258
1.27841
1.25537
1.21843
1.17578
1.29064
1.28835
1.27366
1.24978
1.21319
1.17215
1.28839
1.2845
1.26957
1.24509
1.20811
1.16754
1.2863
1.28118
1.26621
1.24132
1.20319
1.16205
1.2844
1.27848
1.26358
1.23856
1.1985
1.15585
1.28271
1.27642
1.26167
1.23692
1.19415
1.14931
1.28124
1.27497
1.26044
1.23658
1.19034
1.14301
1.27998
1.27406
1.25983
1.23775
1.18743
1.13796
1.27894
1.27359
1.25976
1.24069
1.18576
1.13621
1.27811
1.27338
1.26016
1.24567
1.18495
1.14249
1.2775
1.27306
1.26088
1.25287
1.1841
1.16332
1.27706
1.27211
1.26164
1.26172
1.19102
1.19402
1.27672
1.27043
1.26224
1.27027
1.20818
1.25428
1.27652
1.26916
1.26291
1.27903
1.2424
1.33906
0.410981
0.489125
0.483496
0.502857
0.513331
0.514956
0.510276
0.502071
0.492592
0.483419
0.475384
0.468624
0.462983
0.458341
0.454601
0.45166
0.449399
0.447686
0.446223
0.444413
0.442524
0.445369
0.459711
0.457404
0.667617
0.629956
0.595084
0.589236
0.582728
0.572642
0.559382
0.544707
0.530325
0.51744
0.506567
0.497598
0.490214
0.484196
0.47938
0.475598
0.47268
0.470443
0.468567
0.466479
0.464453
0.46687
0.479674
0.477457
0.82146
0.745792
0.691215
0.666374
0.645993
0.62578
0.604874
0.584356
0.56553
0.549273
0.53581
0.524812
0.515821
0.508538
0.502735
0.49819
0.494678
0.491969
0.489726
0.487414
0.485302
0.487294
0.498499
0.496444
0.9123
0.833969
0.770169
0.732596
0.701762
0.673328
0.645951
0.620389
0.597694
0.578489
0.562743
0.549934
0.539505
0.531091
0.524411
0.519192
0.515158
0.512037
0.509478
0.506993
0.504841
0.506424
0.516013
0.514122
0.976787
0.900069
0.833588
0.788002
0.749623
0.71478
0.682142
0.652392
0.626453
0.604761
0.587066
0.57269
0.561012
0.551617
0.544182
0.538386
0.533907
0.530433
0.527607
0.524995
0.522851
0.524073
0.532052
0.530166
1.02396
0.950118
0.88372
0.833314
0.789687
0.750012
0.713241
0.680136
0.651573
0.627855
0.60855
0.592862
0.580132
0.569915
0.561851
0.555578
0.550729
0.546954
0.543899
0.541185
0.539073
0.539969
0.546343
0.544265
1.05792
0.987826
0.922614
0.869486
0.822349
0.779144
0.739231
0.703534
0.672927
0.647619
0.627031
0.610283
0.5967
0.58582
0.577253
0.570599
0.565447
0.561418
0.55816
0.555359
0.553259
0.553788
0.558629
0.556556
1.08154
1.01547
0.951981
0.897506
0.848132
0.802434
0.760218
0.722596
0.690468
0.663967
0.6424
0.624833
0.610592
0.599206
0.590258
0.583315
0.577924
0.573683
0.570252
0.567374
0.565259
0.565375
0.568809
0.566979
1.0971
1.03485
0.97323
0.918283
0.867583
0.820199
0.776371
0.737395
0.704202
0.676862
0.654594
0.636434
0.621721
0.609976
0.600765
0.593618
0.588051
0.583642
0.580073
0.577135
0.574988
0.574673
0.5769
0.575581
1.10641
1.04738
0.987485
0.932594
0.88121
0.832763
0.787882
0.748031
0.714166
0.686299
0.663581
0.64504
0.630028
0.618067
0.608701
0.601432
0.595749
0.591221
0.587554
0.584584
0.58242
0.581743
0.582975
0.582091
1.11063
1.0541
0.995596
0.941061
0.889444
0.840418
0.794939
0.754615
0.720416
0.692296
0.669355
0.650628
0.635482
0.623434
0.614014
0.606699
0.600957
0.596357
0.592632
0.589655
0.587492
0.586531
0.586983
0.586444
1.11044
1.05566
0.998158
0.944141
0.892622
0.843401
0.797705
0.757253
0.723013
0.694885
0.671931
0.6532
0.63807
0.626057
0.616675
0.609383
0.603636
0.599011
0.595265
0.592305
0.590157
0.588981
0.588873
0.58862
1.10618
1.05245
0.995533
0.942133
0.890971
0.841884
0.796303
0.756029
0.722015
0.694105
0.671336
0.652772
0.637801
0.625935
0.616677
0.609471
0.603772
0.599167
0.595437
0.592506
0.590383
0.589115
0.588668
0.588557
1.09789
1.04461
0.987868
0.935175
0.884609
0.835964
0.790811
0.751006
0.717469
0.689994
0.667603
0.649373
0.634698
0.623087
0.614034
0.606977
0.601378
0.596841
0.593164
0.590282
0.588192
0.586901
0.586362
0.586328
1.08534
1.03203
0.975096
0.923246
0.873541
0.825665
0.781263
0.742219
0.709413
0.682594
0.660776
0.643045
0.628801
0.61755
0.608782
0.601937
0.596492
0.592071
0.588484
0.585668
0.58362
0.582389
0.581993
0.581949
1.06797
1.01435
0.956908
0.90617
0.857667
0.810938
0.76765
0.729686
0.697881
0.671951
0.650908
0.633848
0.620173
0.609388
0.600983
0.594416
0.589181
0.584925
0.581465
0.57873
0.576731
0.575642
0.575616
0.575474
1.04478
0.990941
0.932754
0.883604
0.836789
0.791687
0.749934
0.713413
0.682912
0.658126
0.638076
0.621864
0.608894
0.598681
0.590728
0.584507
0.579539
0.575494
0.572196
0.569558
0.567616
0.566747
0.567304
0.566979
1.01419
0.960792
0.90186
0.855059
0.810625
0.767771
0.728067
0.693413
0.664558
0.641196
0.622369
0.607187
0.595069
0.585545
0.57813
0.572324
0.567679
0.563894
0.560793
0.558269
0.556391
0.555811
0.557146
0.556562
0.973618
0.922442
0.86319
0.819923
0.778829
0.739022
0.702
0.669711
0.642893
0.621265
0.603904
0.589945
0.578831
0.57011
0.563324
0.558003
0.553742
0.550263
0.547396
0.545002
0.543199
0.542967
0.545252
0.544338
0.918919
0.873864
0.815389
0.777472
0.741044
0.705294
0.671715
0.642374
0.618035
0.598475
0.582838
0.5703
0.560342
0.552541
0.546474
0.541712
0.537891
0.534766
0.532165
0.529923
0.528204
0.528373
0.531753
0.530456
0.845303
0.812341
0.756715
0.726901
0.696949
0.666516
0.637277
0.611542
0.590167
0.57303
0.559378
0.548457
0.539802
0.533033
0.527772
0.523638
0.520313
0.517586
0.515286
0.513216
0.511601
0.512225
0.51683
0.51508
0.748973
0.733905
0.685006
0.66744
0.646379
0.622776
0.598895
0.577479
0.559567
0.545205
0.533787
0.524664
0.517444
0.51181
0.507435
0.503992
0.501214
0.498924
0.496957
0.495086
0.493594
0.494722
0.500666
0.498363
0.594154
0.631486
0.598204
0.598785
0.589581
0.574479
0.557023
0.540623
0.52664
0.515365
0.506392
0.499215
0.493542
0.489125
0.4857
0.482999
0.480805
0.47898
0.477366
0.475702
0.474311
0.475887
0.483273
0.480712
0.34399
0.500119
0.496942
0.522212
0.527699
0.522591
0.512467
0.501636
0.491928
0.483964
0.477581
0.472453
0.4684
0.465257
0.462827
0.460903
0.459319
0.457973
0.456719
0.455259
0.453932
0.455869
0.464724
0.462196
-0.392279
-0.447545
-0.518343
-0.58299
-0.603014
-0.8526
-0.404289
-0.45369
-0.522292
-0.585206
-0.595324
-0.735551
-0.415492
-0.459254
-0.524814
-0.585889
-0.586775
-0.647832
-0.414161
-0.46325
-0.524741
-0.58349
-0.581316
-0.58235
-0.413816
-0.466606
-0.522921
-0.576338
-0.568045
-0.53567
-0.416821
-0.468778
-0.518544
-0.562455
-0.548596
-0.498278
-0.418583
-0.46824
-0.510926
-0.543964
-0.524031
-0.464085
-0.418535
-0.464687
-0.500151
-0.521779
-0.496569
-0.431395
-0.416566
-0.458283
-0.486421
-0.497173
-0.467438
-0.400138
-0.412705
-0.44938
-0.470255
-0.471206
-0.437378
-0.370378
-0.407057
-0.438368
-0.452358
-0.444613
-0.407033
-0.342033
-0.39979
-0.425688
-0.433417
-0.417962
-0.377004
-0.315057
-0.391076
-0.412075
-0.41403
-0.391729
-0.347797
-0.289464
-0.381285
-0.397948
-0.394665
-0.366302
-0.319794
-0.265246
-0.370829
-0.38365
-0.375664
-0.341967
-0.293223
-0.242402
-0.360121
-0.369492
-0.35726
-0.318925
-0.268267
-0.221069
-0.349578
-0.355736
-0.339573
-0.297262
-0.245153
-0.201499
-0.33962
-0.342579
-0.322588
-0.276597
-0.224099
-0.183956
-0.330594
-0.330152
-0.306195
-0.25684
-0.204352
-0.168276
-0.32252
-0.318587
-0.290202
-0.237409
-0.184824
-0.153636
-0.315877
-0.308237
-0.274371
-0.217313
-0.163817
-0.137468
-0.311381
-0.299903
-0.258422
-0.194838
-0.138441
-0.114087
-0.309689
-0.294026
-0.242173
-0.168282
-0.104567
-0.0784646
-0.310027
-0.28877
-0.226184
-0.139487
-0.0589837
-0.0428356
-0.0531827
0.325162
0.387294
0.441946
0.463305
0.468807
0.466418
0.461387
0.456096
0.45153
0.447792
0.444752
0.442351
0.440509
0.439098
0.43797
0.437008
0.436149
0.435258
0.434003
0.432714
0.434942
0.445245
0.442961
-0.235365
0.154912
0.283775
0.364026
0.399681
0.41514
0.420197
0.420809
0.41984
0.418612
0.417478
0.416501
0.415738
0.415192
0.414801
0.414473
0.414139
0.413768
0.413239
0.412186
0.410925
0.413391
0.425059
0.42318
-0.291395
0.0407177
0.197476
0.292656
0.339414
0.36332
0.374996
0.380764
0.383821
0.385738
0.387079
0.38808
0.388901
0.389618
0.390229
0.390694
0.390986
0.391107
0.390947
0.390114
0.388927
0.391683
0.404569
0.402713
-0.310201
-0.0298829
0.129029
0.229582
0.283924
0.314486
0.331712
0.341962
0.348609
0.353377
0.356999
0.359844
0.362159
0.364079
0.365657
0.366897
0.36781
0.368425
0.368645
0.36806
0.366996
0.370068
0.38408
0.382129
-0.31895
-0.0765682
0.0752454
0.175316
0.233844
0.269254
0.290914
0.304914
0.314646
0.32192
0.327584
0.332107
0.335798
0.338845
0.341341
0.343328
0.344848
0.345954
0.346563
0.346251
0.345342
0.348716
0.363734
0.361764
-0.319605
-0.108665
0.0329594
0.129617
0.189494
0.227963
0.252952
0.269964
0.282262
0.291675
0.29912
0.305133
0.31007
0.314153
0.317509
0.320209
0.322318
0.323912
0.324917
0.324901
0.324182
0.327833
0.343716
0.341868
-0.312526
-0.130003
-0.000100916
0.0914996
0.150875
0.190802
0.218044
0.237342
0.251691
0.262871
0.271828
0.279138
0.285183
0.290209
0.294363
0.297738
0.300419
0.302494
0.303902
0.304209
0.303714
0.307613
0.324204
0.322685
-0.300231
-0.14326
-0.025539
0.0597772
0.117552
0.157761
0.186293
0.207179
0.22308
0.235666
0.245872
0.254288
0.261306
0.267181
0.272074
0.27609
0.279326
0.281878
0.283699
0.284358
0.284122
0.288227
0.305347
0.304469
-0.285345
-0.150591
-0.0448998
0.0335625
0.0889092
0.128594
0.157652
0.179501
0.196495
0.210148
0.221356
0.230697
0.238561
0.245201
0.250782
0.255413
0.259195
0.26223
0.264479
0.265521
0.265579
0.269822
0.287247
0.28751
-0.269478
-0.153499
-0.0595603
0.0120025
0.0643335
0.102929
0.131932
0.154242
0.171932
0.186342
0.198325
0.208431
0.217028
0.224363
0.230593
0.235828
0.240164
0.243702
0.24641
0.247881
0.248261
0.252513
0.269922
0.272213
-0.253281
-0.153294
-0.0705015
-0.00568964
0.0432403
0.0803486
0.108862
0.131256
0.149329
0.164202
0.176771
0.187502
0.196737
0.20471
0.211569
0.217417
0.222343
0.226436
0.229674
0.231665
0.232413
0.236376
0.253142
0.259375
-0.237107
-0.150971
-0.0784919
-0.0201703
0.0250838
0.0604089
0.0881384
0.110339
0.128594
0.143586
0.156633
0.167873
0.177663
0.186227
0.193708
0.200201
0.205784
0.210534
0.214448
0.21719
0.218456
0.221322
0.235534
0.251209
-0.221156
-0.147239
-0.0842585
-0.0321312
0.00937452
0.0426996
0.0694481
0.0912246
0.109324
0.124609
0.13786
0.149466
0.159723
0.168828
0.176917
0.184086
0.190411
0.195963
0.200779
0.204662
0.207006
0.207959
0.214338
0.252896
-0.205629
-0.142754
-0.0885011
-0.0422446
-0.00429657
0.0268752
0.0525035
0.0737186
0.0915684
0.106874
0.120265
0.132141
0.142773
0.152347
0.160995
0.168824
0.175931
0.182421
0.188345
0.193513
0.197825
0.203916
0.218621
0.226508
-0.190953
-0.138133
-0.0918094
-0.0510652
-0.0162889
0.0126033
0.0370276
0.0575861
0.075091
0.0902794
0.103707
0.115744
0.126637
0.136553
0.145611
0.153905
0.161518
0.168528
0.174904
0.18034
0.185003
0.19293
0.210385
0.203988
-0.177578
-0.133885
-0.0946378
-0.0589419
-0.0271904
-0.000405685
0.0227656
0.0426154
0.0597077
0.0746857
0.0880514
0.100141
0.111175
0.121299
0.130614
0.139195
0.147109
0.15441
0.161031
0.166618
0.171467
0.180111
0.198429
0.1871
-0.166006
-0.130489
-0.0974506
-0.0662079
-0.0375151
-0.0123405
0.00945126
0.0286108
0.0452569
0.0599542
0.0731732
0.0852174
0.0962817
0.106492
0.115932
0.124662
0.132739
0.140216
0.147016
0.152784
0.157908
0.167072
0.185839
0.172667
-0.156987
-0.12854
-0.100732
-0.0732846
-0.0473501
-0.0237389
-0.00308524
0.0154253
0.0315993
0.0459574
0.0589583
0.0708732
0.0818723
0.0920647
0.10152
0.110289
0.118431
0.126
0.132902
0.138829
0.14425
0.153825
0.172863
0.159302
-0.151278
-0.128732
-0.104943
-0.0805144
-0.0568471
-0.0348659
-0.0150335
0.00279648
0.0185735
0.0325669
0.0452982
0.0570165
0.0678713
0.0779588
0.0873402
0.096068
0.1042
0.111773
0.118707
0.124769
0.130464
0.140314
0.159464
0.146473
-0.149266
-0.131614
-0.110458
-0.0882419
-0.0663401
-0.0456035
-0.0266036
-0.00943788
0.00598969
0.0196462
0.0320904
0.0435641
0.0542113
0.0641245
0.0733674
0.0819883
0.0900336
0.0975372
0.104454
0.110604
0.1165
0.126465
0.145529
0.133856
-0.150287
-0.137299
-0.117432
-0.096647
-0.0760659
-0.0562973
-0.0379381
-0.0212397
-0.00626751
0.00710044
0.0192571
0.0304497
0.0408371
0.0505225
0.0595738
0.0680296
0.075928
0.0833099
0.0901526
0.0963225
0.102319
0.1122
0.130916
0.121181
-0.151953
-0.145047
-0.125732
-0.10581
-0.0861398
-0.0670802
-0.0492233
-0.0327046
-0.0181195
-0.00507979
0.00675328
0.0176258
0.0277071
0.0371172
0.045931
0.0541806
0.0618928
0.0691165
0.0758413
0.0819598
0.0879438
0.0975124
0.115528
0.108231
-0.15237
-0.152701
-0.134549
-0.115508
-0.09652
-0.0779043
-0.0603182
-0.0442174
-0.0297058
-0.0169422
-0.00545934
0.00505526
0.0147846
0.0238723
0.0324089
0.0404273
0.0479418
0.0549908
0.0615788
0.0676145
0.0734994
0.0825147
0.0993823
0.0948585
-0.160794
-0.160158
-0.143287
-0.125215
-0.106849
-0.0885833
-0.0712165
-0.0554523
-0.0412581
-0.0285886
-0.017411
-0.00728671
0.00202612
0.0107327
0.0189505
0.0267226
0.0340531
0.0409545
0.0474321
0.0534182
0.0591933
0.0674693
0.0826962
0.0810432
)
;

boundaryField
{
    rotor
    {
        type            zeroGradient;
    }
    freestream
    {
        type            freestreamPressure;
        freestreamValue uniform 0;
        supersonic      false;
        value           nonuniform List<scalar> 
96
(
0.010766
0.00742854
0.00483864
0.00302334
0.00188714
0.000985957
0.000471962
0.000172857
-4.67566e-05
-0.000237755
-3.26741e-05
0.000248054
5.49091e-06
-0.000164378
-0.0014482
-0.0016476
-0.0011989
-0.00115925
-0.0013617
-0.00158036
-0.00167339
-0.00159058
-0.00124299
-0.000553396
0.000537412
0.0021582
0.00441635
0.00744663
0.0113798
0.0163427
0.0224776
0.0299483
0.0389145
0.0495394
0.0620122
0.0765859
0.0936963
0.113936
0.135223
0.150923
0.169238
0.190499
0.214098
0.239417
0.266077
0.293733
0.322058
0.350723
0.379374
0.407634
0.435105
0.461369
0.485919
0.508255
0.528296
0.545804
0.560661
0.572465
0.581032
0.586251
0.588
0.586326
0.581249
0.572862
0.561311
0.54679
0.529537
0.509841
0.488023
0.464402
0.439535
0.413661
0.387086
0.360137
0.332864
0.305907
0.27966
0.254413
0.230415
0.207881
0.187011
0.168022
0.1513
0.137917
0.13025
0.109346
0.091659
0.0778453
0.0661714
0.0559208
0.0468279
0.0387445
0.0315667
0.0252198
0.0196531
0.0148394
)
;
    }
    frontAndBack
    {
        type            empty;
    }
}


// ************************************************************************* //
