/*--------------------------------*- C++ -*----------------------------------*\
  =========                 |
  \\      /  F ield         | OpenFOAM: The Open Source CFD Toolbox
   \\    /   O peration     | Website:  https://openfoam.org
    \\  /    A nd           | Version:  11
     \\/     M anipulation  |
\*---------------------------------------------------------------------------*/
FoamFile
{
    format      ascii;
    class       surfaceScalarField;
    location    "0.36";
    object      phi;
}
// * * * * * * * * * * * * * * * * * * * * * * * * * * * * * * * * * * * * * //

dimensions      [0 3 -1 0 0 0 0];

internalField   nonuniform List<scalar> 
5640
(
8.83322e-08
-8.83322e-08
4.06558e-07
-3.18226e-07
8.89514e-07
-4.82956e-07
1.60399e-06
-7.14477e-07
2.46621e-06
-8.62221e-07
-1.05534e-06
3.52155e-06
1.83826e-07
-2.72158e-07
5.20561e-07
-6.54961e-07
9.84871e-07
-9.47266e-07
1.55559e-06
-1.28519e-06
2.19816e-06
-1.5048e-06
-1.55925e-06
2.70207e-06
2.20051e-07
-4.92209e-07
5.37041e-07
-9.71951e-07
9.42134e-07
-1.35236e-06
1.38301e-06
-1.72607e-06
1.82815e-06
-1.94994e-06
-1.88905e-06
2.15796e-06
2.37253e-07
-7.29461e-07
5.20987e-07
-1.25569e-06
8.53403e-07
-1.68478e-06
1.17946e-06
-2.05212e-06
1.4814e-06
-2.25188e-06
-2.14317e-06
1.73552e-06
2.43761e-07
-9.73222e-07
4.83426e-07
-1.49535e-06
7.39593e-07
-1.94094e-06
9.63892e-07
-2.27642e-06
1.15223e-06
-2.44021e-06
-2.32059e-06
1.32964e-06
2.38738e-07
-1.21196e-06
4.28834e-07
-1.68545e-06
6.10449e-07
-2.12256e-06
7.43876e-07
-2.40985e-06
8.33786e-07
-2.53012e-06
-2.41146e-06
9.2466e-07
2.12614e-07
-1.42457e-06
3.59099e-07
-1.83193e-06
4.72727e-07
-2.23619e-06
5.24999e-07
-2.46212e-06
5.26252e-07
-2.53138e-06
-2.41176e-06
5.26549e-07
1.69285e-07
-1.59386e-06
2.78751e-07
-1.9414e-06
3.3229e-07
-2.28972e-06
3.12567e-07
-2.4424e-06
2.33845e-07
-2.45265e-06
-2.32265e-06
1.44737e-07
1.22872e-07
-1.71673e-06
1.93835e-07
-2.01236e-06
1.94374e-07
-2.29026e-06
1.11987e-07
-2.36001e-06
-3.76135e-08
-2.30305e-06
-2.14956e-06
-2.10703e-07
7.54258e-08
-1.79216e-06
1.08759e-07
-2.0457e-06
6.34474e-08
-2.24495e-06
-7.16685e-08
-2.22489e-06
-2.81704e-07
-2.09302e-06
-1.90182e-06
-5.29443e-07
2.84523e-08
-1.82061e-06
2.66929e-08
-2.04394e-06
-5.69024e-08
-2.16136e-06
-2.34248e-07
-2.04755e-06
-4.93004e-07
-1.83426e-06
-1.59256e-06
-8.02268e-07
-1.66307e-08
-1.80398e-06
-5.00582e-08
-2.01051e-06
-1.64055e-07
-2.04736e-06
-3.72642e-07
-1.83896e-06
-6.66745e-07
-1.54016e-06
-1.23787e-06
-1.02143e-06
-5.82815e-08
-1.7457e-06
-1.19899e-07
-1.94889e-06
-2.56438e-07
-1.91082e-06
-4.84885e-07
-1.61051e-06
-7.99712e-07
-1.22533e-06
-8.5631e-07
-1.18128e-06
-9.59444e-08
-1.64975e-06
-1.8186e-07
-1.86298e-06
-3.33418e-07
-1.75926e-06
-5.70286e-07
-1.37365e-06
-8.90445e-07
-9.05173e-07
-4.68028e-07
-1.27873e-06
-1.28857e-07
-1.5209e-06
-2.35507e-07
-1.75633e-06
-3.95282e-07
-1.59949e-06
-6.29515e-07
-1.13941e-06
-9.39466e-07
-5.95222e-07
-9.38656e-08
-1.31363e-06
-1.56455e-07
-1.36444e-06
-2.80837e-07
-1.63194e-06
-4.4319e-07
-1.43713e-06
-6.6463e-07
-9.17973e-07
-9.49395e-07
-3.10457e-07
2.4567e-07
-1.28893e-06
-1.78267e-07
-1.18617e-06
-3.18174e-07
-1.49204e-06
-4.7911e-07
-1.2762e-06
-6.79068e-07
-7.18016e-07
-9.24964e-07
-6.45602e-08
5.31386e-07
-1.21068e-06
-1.93635e-07
-9.92538e-07
-3.48019e-07
-1.33765e-06
-5.05715e-07
-1.1185e-06
-6.77578e-07
-5.46153e-07
-8.72923e-07
1.30784e-07
7.46271e-07
-1.08781e-06
-2.01066e-07
-7.91471e-07
-3.70652e-07
-1.16807e-06
-5.26266e-07
-9.62888e-07
-6.66157e-07
-4.06262e-07
-8.01892e-07
2.6652e-07
8.76087e-07
-9.31708e-07
-1.96785e-07
-5.94687e-07
-3.86623e-07
-9.7823e-07
-5.44525e-07
-8.04986e-07
-6.52003e-07
-2.98784e-07
-7.22438e-07
3.36955e-07
9.09296e-07
-7.55647e-07
-1.87255e-07
-4.07431e-07
-3.99253e-07
-7.66232e-07
-5.64536e-07
-6.39703e-07
-6.43488e-07
-2.19833e-07
-6.46874e-07
3.40341e-07
8.3683e-07
-5.74408e-07
-1.74104e-07
-2.33328e-07
-4.08994e-07
-5.31342e-07
-5.89509e-07
-4.59188e-07
-6.50031e-07
-1.59311e-07
-5.89145e-07
2.79455e-07
6.53082e-07
-4.05397e-07
-1.51067e-07
-8.22609e-08
-4.11087e-07
-2.71322e-07
-6.17539e-07
-2.52736e-07
-6.78933e-07
-9.79169e-08
-5.59248e-07
1.59771e-07
3.6131e-07
-2.67476e-07
-8.22609e-08
-3.53583e-07
-6.06318e-07
-7.04235e-07
-5.44465e-07
-1.83155e-07
8.18799e-06
5.89076e-06
-1.05572e-05
1.19501e-05
1.16132e-05
-1.53754e-05
1.53859e-05
1.48677e-05
-1.83035e-05
1.85756e-05
1.68011e-05
-1.99909e-05
2.1566e-05
1.79584e-05
-2.09487e-05
2.43655e-05
1.86138e-05
-2.14133e-05
2.69768e-05
1.89201e-05
-2.15314e-05
2.94173e-05
1.8955e-05
-2.13955e-05
3.17208e-05
1.88002e-05
-2.11037e-05
3.39193e-05
1.85324e-05
-2.07309e-05
3.60142e-05
1.82133e-05
-2.03083e-05
3.79987e-05
1.78659e-05
-1.98504e-05
3.98815e-05
1.74898e-05
-1.93725e-05
4.16678e-05
1.70903e-05
-1.88767e-05
4.33581e-05
1.66702e-05
-1.83605e-05
4.4952e-05
1.62232e-05
-1.7817e-05
4.64475e-05
1.57406e-05
-1.72361e-05
4.7842e-05
1.52104e-05
-1.66048e-05
4.91317e-05
1.46165e-05
-1.59062e-05
5.03111e-05
1.39388e-05
-1.51182e-05
5.13717e-05
1.31511e-05
-1.42117e-05
5.23025e-05
1.22134e-05
-1.31442e-05
5.30937e-05
1.10379e-05
-1.18291e-05
9.39845e-06
-1.0078e-05
6.04095e-06
2.55188e-06
1.01888e-05
7.46544e-06
1.42232e-05
1.08333e-05
1.80025e-05
1.30218e-05
2.15227e-05
1.44382e-05
2.47908e-05
1.53457e-05
2.78414e-05
1.58694e-05
3.06974e-05
1.6099e-05
3.33689e-05
1.61287e-05
3.58907e-05
1.60106e-05
3.83041e-05
1.57999e-05
4.06147e-05
1.55554e-05
4.28075e-05
1.5297e-05
4.48731e-05
1.50247e-05
4.68169e-05
1.47264e-05
4.86456e-05
1.43945e-05
5.03591e-05
1.40271e-05
5.19559e-05
1.36136e-05
5.34346e-05
1.31377e-05
5.47913e-05
1.25822e-05
5.60164e-05
1.1926e-05
5.70933e-05
1.11365e-05
5.79958e-05
1.01353e-05
8.66538e-06
4.30972e-06
4.0012e-07
7.7638e-06
4.01135e-06
1.16767e-05
6.9204e-06
1.56956e-05
9.00294e-06
1.96946e-05
1.04392e-05
2.36018e-05
1.14384e-05
2.73243e-05
1.21469e-05
3.08025e-05
1.26208e-05
3.40501e-05
1.28811e-05
3.70931e-05
1.29676e-05
3.99477e-05
1.29452e-05
4.26405e-05
1.28626e-05
4.52021e-05
1.27354e-05
4.76439e-05
1.25828e-05
4.99514e-05
1.24189e-05
5.21054e-05
1.22405e-05
5.41008e-05
1.20317e-05
5.59453e-05
1.1769e-05
5.76482e-05
1.14348e-05
5.92118e-05
1.10186e-05
6.06287e-05
1.05091e-05
6.18859e-05
9.87937e-06
6.29499e-05
9.07126e-06
7.84569e-06
3.09313e-06
-9.57494e-07
5.58069e-06
1.52379e-06
8.76916e-06
3.73193e-06
1.23508e-05
5.42133e-06
1.61643e-05
6.62576e-06
2.01314e-05
7.47127e-06
2.42138e-05
8.06456e-06
2.83355e-05
8.49905e-06
3.23776e-05
8.83909e-06
3.62329e-05
9.11229e-06
3.98588e-05
9.31942e-06
4.32581e-05
9.46332e-06
4.64313e-05
9.56214e-06
4.93921e-05
9.62205e-06
5.21574e-05
9.65354e-06
5.47436e-05
9.65433e-06
5.71619e-05
9.61341e-06
5.94056e-05
9.52536e-06
6.1459e-05
9.38137e-06
6.3314e-05
9.16357e-06
6.49788e-05
8.84436e-06
6.6464e-05
8.39416e-06
6.77559e-05
7.77934e-06
6.85681e-06
2.19381e-06
-1.82166e-06
3.87387e-06
-1.56274e-07
6.22226e-06
1.38354e-06
9.0523e-06
2.59129e-06
1.22348e-05
3.44325e-06
1.57034e-05
4.00266e-06
1.94175e-05
4.35046e-06
2.33437e-05
4.57285e-06
2.74602e-05
4.72258e-06
3.17274e-05
4.84516e-06
3.60632e-05
4.98357e-06
4.03639e-05
5.16267e-06
4.45228e-05
5.40316e-06
4.84585e-05
5.68634e-06
5.21293e-05
5.98276e-06
5.55115e-05
6.27213e-06
5.86006e-05
6.52436e-06
6.1412e-05
6.71398e-06
6.39642e-05
6.82914e-06
6.6285e-05
6.84282e-06
6.83881e-05
6.74119e-06
7.0274e-05
6.50831e-06
7.1911e-05
6.14235e-06
5.5961e-06
1.44913e-06
-2.34613e-06
2.53692e-06
-1.24407e-06
4.16149e-06
-2.4103e-07
6.23676e-06
5.16013e-07
8.68232e-06
9.977e-07
1.14483e-05
1.23668e-06
1.45067e-05
1.29202e-06
1.7847e-05
1.23255e-06
2.14592e-05
1.11041e-06
2.53225e-05
9.81839e-07
2.94161e-05
8.90041e-07
3.3714e-05
8.64716e-07
3.81859e-05
9.31281e-07
4.27633e-05
1.10891e-06
4.73435e-05
1.40259e-06
5.18151e-05
1.80054e-06
5.60643e-05
2.27517e-06
5.99976e-05
2.78069e-06
6.35653e-05
3.26136e-06
6.67482e-05
3.65997e-06
6.95555e-05
3.93389e-06
7.20224e-05
4.04144e-06
7.41979e-05
3.96681e-06
3.82216e-06
7.87511e-07
-2.60709e-06
1.43429e-06
-1.89085e-06
2.48413e-06
-1.29087e-06
3.90658e-06
-9.06444e-07
5.66224e-06
-7.57954e-07
7.72204e-06
-8.23132e-07
1.00703e-05
-1.05622e-06
1.27055e-05
-1.40271e-06
1.56274e-05
-1.81143e-06
1.88373e-05
-2.22812e-06
2.23356e-05
-2.60823e-06
2.6112e-05
-2.91167e-06
3.01505e-05
-3.10727e-06
3.44282e-05
-3.1688e-06
3.89102e-05
-3.07937e-06
4.35487e-05
-2.83791e-06
4.82768e-05
-2.453e-06
5.29986e-05
-1.94108e-06
5.75943e-05
-1.33439e-06
6.19355e-05
-6.81202e-07
6.59136e-05
-4.41948e-08
6.94484e-05
5.06632e-07
7.25709e-05
8.44323e-07
1.13784e-06
1.86719e-07
-2.64907e-06
4.87881e-07
-2.19201e-06
1.07882e-06
-1.88181e-06
1.95636e-06
-1.78398e-06
3.10573e-06
-1.90733e-06
4.51467e-06
-2.23207e-06
6.17984e-06
-2.72139e-06
8.10677e-06
-3.32963e-06
1.03037e-05
-4.0084e-06
1.27832e-05
-4.70754e-06
1.55549e-05
-5.37999e-06
1.86248e-05
-5.98152e-06
2.19916e-05
-6.47408e-06
2.56475e-05
-6.82473e-06
2.95795e-05
-7.01132e-06
3.37625e-05
-7.02095e-06
3.81576e-05
-6.84811e-06
4.27132e-05
-6.4967e-06
4.73619e-05
-5.98307e-06
5.20167e-05
-5.336e-06
5.65723e-05
-4.59981e-06
6.09044e-05
-3.82543e-06
6.4889e-05
-3.14034e-06
-2.54191e-06
-3.54667e-07
-2.5051e-06
-3.34566e-07
-2.21211e-06
-1.17775e-07
-2.0986e-06
3.03857e-07
-2.20561e-06
9.2914e-07
-2.53261e-06
1.75598e-06
-3.0589e-06
2.78941e-06
-3.75482e-06
4.04096e-06
-4.58119e-06
5.52645e-06
-5.49389e-06
7.26503e-06
-6.44611e-06
9.27524e-06
-7.39019e-06
1.15739e-05
-8.28016e-06
1.41726e-05
-9.07282e-06
1.70769e-05
-9.72905e-06
2.02843e-05
-1.02186e-05
2.37821e-05
-1.05188e-05
2.75477e-05
-1.06137e-05
3.15476e-05
-1.04965e-05
3.57364e-05
-1.01719e-05
4.00565e-05
-9.6561e-06
4.44352e-05
-8.9785e-06
4.8791e-05
-8.18128e-06
5.30209e-05
-7.37017e-06
-6.77363e-06
-8.29639e-07
-2.20491e-06
-1.03952e-06
-2.00223e-06
-1.12931e-06
-2.00881e-06
-1.08718e-06
-2.24774e-06
-9.08271e-07
-2.71152e-06
-5.89318e-07
-3.37786e-06
-1.19955e-07
-4.22418e-06
5.15612e-07
-5.21676e-06
1.339e-06
-6.31728e-06
2.37515e-06
-7.48226e-06
3.65015e-06
-8.66519e-06
5.18851e-06
-9.81852e-06
7.01058e-06
-1.08949e-05
9.13097e-06
-1.18494e-05
1.15565e-05
-1.26442e-05
1.42872e-05
-1.32495e-05
1.73146e-05
-1.36411e-05
2.06203e-05
-1.38022e-05
2.41756e-05
-1.37272e-05
2.79429e-05
-1.34235e-05
3.18809e-05
-1.29165e-05
3.59598e-05
-1.22602e-05
4.01667e-05
-1.1577e-05
-1.11873e-05
-1.22813e-06
-1.77904e-06
-1.62085e-06
-1.60951e-06
-1.95471e-06
-1.67496e-06
-2.21871e-06
-1.98373e-06
-2.40701e-06
-2.52323e-06
-2.51217e-06
-3.2727e-06
-2.52151e-06
-4.21484e-06
-2.41537e-06
-5.3229e-06
-2.16769e-06
-6.56496e-06
-1.7474e-06
-7.90254e-06
-1.12113e-06
-9.29147e-06
-2.56055e-07
-1.06836e-05
8.76732e-07
-1.20277e-05
2.29499e-06
-1.32677e-05
4.01112e-06
-1.43603e-05
6.03404e-06
-1.52724e-05
8.36334e-06
-1.59704e-05
1.09918e-05
-1.64307e-05
1.39073e-05
-1.66428e-05
1.70981e-05
-1.66142e-05
2.05594e-05
-1.63778e-05
2.43067e-05
-1.60076e-05
2.83815e-05
-1.56518e-05
-1.55592e-05
-1.53992e-06
-1.26056e-06
-2.06716e-06
-1.08226e-06
-2.58208e-06
-1.16004e-06
-3.07534e-06
-1.49047e-06
-3.5419e-06
-2.05666e-06
-3.97214e-06
-2.84246e-06
-4.3516e-06
-3.83538e-06
-4.65846e-06
-5.01605e-06
-4.86199e-06
-6.36143e-06
-4.92403e-06
-7.84051e-06
-4.803e-06
-9.4125e-06
-4.45743e-06
-1.10292e-05
-3.84379e-06
-1.26413e-05
-2.94543e-06
-1.41661e-05
-1.74368e-06
-1.55621e-05
-2.26985e-07
-1.67891e-05
1.60465e-06
-1.7802e-05
3.74536e-06
-1.85714e-05
6.18601e-06
-1.90834e-05
8.91532e-06
-1.93435e-05
1.19225e-05
-1.93849e-05
1.51924e-05
-1.92775e-05
1.8743e-05
-1.92024e-05
-1.93383e-05
-1.7566e-06
-6.85228e-07
-2.36726e-06
-4.7161e-07
-2.99573e-06
-5.31569e-07
-3.63428e-06
-8.51928e-07
-4.27783e-06
-1.41311e-06
-4.91547e-06
-2.20481e-06
-5.52843e-06
-3.22242e-06
-6.08521e-06
-4.45926e-06
-6.54443e-06
-5.90221e-06
-6.86267e-06
-7.52227e-06
-6.99514e-06
-9.28003e-06
-6.89799e-06
-1.11263e-05
-6.54122e-06
-1.29981e-05
-5.87481e-06
-1.48325e-05
-4.88338e-06
-1.65535e-05
-3.56421e-06
-1.81083e-05
-1.91391e-06
-1.94523e-05
6.34943e-08
-2.05488e-05
2.35593e-06
-2.13759e-05
4.94212e-06
-2.19297e-05
7.78564e-06
-2.22284e-05
1.08244e-05
-2.23162e-05
1.39138e-05
-2.22918e-05
-2.24117e-05
-1.8731e-06
-9.08574e-08
-2.51337e-06
1.68662e-07
-3.18341e-06
1.38476e-07
-3.87466e-06
-1.60682e-07
-4.57826e-06
-7.09507e-07
-5.27776e-06
-1.50532e-06
-5.94881e-06
-2.55137e-06
-6.56011e-06
-3.84797e-06
-7.0754e-06
-5.38691e-06
-7.4492e-06
-7.14847e-06
-7.63086e-06
-9.09837e-06
-7.57325e-06
-1.11839e-05
-7.23447e-06
-1.33369e-05
-6.57097e-06
-1.5496e-05
-5.53668e-06
-1.75878e-05
-4.11969e-06
-1.95253e-05
-2.32393e-06
-2.12481e-05
-1.59689e-07
-2.2713e-05
2.35706e-06
-2.38926e-05
5.21215e-06
-2.47848e-05
8.38774e-06
-2.5404e-05
1.18525e-05
-2.57809e-05
1.5548e-05
-2.59873e-05
-2.61955e-05
-1.88863e-06
4.84147e-07
-2.50359e-06
7.83615e-07
-3.1408e-06
7.75688e-07
-3.78861e-06
4.87126e-07
-4.43662e-06
-6.14923e-08
-5.06882e-06
-8.73117e-07
-5.66087e-06
-1.95932e-06
-6.17832e-06
-3.33051e-06
-6.57575e-06
-4.98949e-06
-6.79583e-06
-6.92839e-06
-6.77604e-06
-9.11817e-06
-6.45021e-06
-1.15098e-05
-5.77068e-06
-1.40164e-05
-4.70589e-06
-1.65608e-05
-3.24549e-06
-1.90482e-05
-1.38108e-06
-2.13897e-05
8.83859e-07
-2.3513e-05
3.53693e-06
-2.53661e-05
6.57028e-06
-2.6926e-05
9.98001e-06
-2.81945e-05
1.37742e-05
-2.91982e-05
1.79707e-05
-2.99775e-05
2.25559e-05
-3.05725e-05
-3.09018e-05
-1.80747e-06
1.00269e-06
-2.34366e-06
1.31981e-06
-2.87518e-06
1.3072e-06
-3.38446e-06
9.96403e-07
-3.85867e-06
4.1272e-07
-4.27635e-06
-4.55442e-07
-4.60515e-06
-1.63052e-06
-4.8025e-06
-3.13316e-06
-4.81411e-06
-4.97788e-06
-4.57977e-06
-7.16272e-06
-4.03946e-06
-9.65847e-06
-3.14383e-06
-1.24054e-05
-1.85669e-06
-1.53035e-05
-1.57279e-07
-1.82602e-05
1.95707e-06
-2.11626e-05
4.47504e-06
-2.39077e-05
7.37325e-06
-2.64112e-05
1.06257e-05
-2.86186e-05
1.42114e-05
-3.05117e-05
1.8119e-05
-3.21021e-05
2.23465e-05
-3.34257e-05
2.69014e-05
-3.45324e-05
3.17742e-05
-3.54453e-05
-3.59344e-05
-1.63912e-06
1.43113e-06
-2.04779e-06
1.72848e-06
-2.40489e-06
1.6643e-06
-2.68762e-06
1.27914e-06
-2.8734e-06
5.98502e-07
-2.93055e-06
-3.98293e-07
-2.81917e-06
-1.7419e-06
-2.48914e-06
-3.46319e-06
-1.88537e-06
-5.58165e-06
-9.54474e-07
-8.09361e-06
3.48674e-07
-1.09616e-05
2.04587e-06
-1.41026e-05
4.15614e-06
-1.74138e-05
6.67114e-06
-2.07752e-05
9.57291e-06
-2.40643e-05
1.28287e-05
-2.71634e-05
1.64008e-05
-2.99833e-05
2.0249e-05
-3.24668e-05
2.43244e-05
-3.45871e-05
2.85768e-05
-3.63544e-05
3.2964e-05
-3.78129e-05
3.74519e-05
-3.90203e-05
4.20184e-05
-4.00118e-05
-4.05941e-05
-1.39821e-06
1.74153e-06
-1.63771e-06
1.96798e-06
-1.7635e-06
1.79009e-06
-1.74389e-06
1.25952e-06
-1.54328e-06
3.97895e-07
-1.12094e-06
-8.20636e-07
-4.29488e-07
-2.43335e-06
5.81667e-07
-4.47435e-06
1.96018e-06
-6.96016e-06
3.73888e-06
-9.87232e-06
5.92935e-06
-1.31521e-05
8.52954e-06
-1.67028e-05
1.15196e-05
-2.04039e-05
1.48673e-05
-2.41229e-05
1.85282e-05
-2.77252e-05
2.24533e-05
-3.10885e-05
2.65867e-05
-3.41167e-05
3.0859e-05
-3.6739e-05
3.51895e-05
-3.89177e-05
3.9502e-05
-4.06669e-05
4.3733e-05
-4.20439e-05
4.78175e-05
-4.31048e-05
5.16983e-05
-4.38926e-05
-4.42805e-05
-1.10447e-06
1.91429e-06
-1.14501e-06
2.00852e-06
-9.9771e-07
1.64279e-06
-6.19113e-07
8.80926e-07
3.59907e-08
-2.57209e-07
1.01525e-06
-1.79989e-06
2.36621e-06
-3.78431e-06
4.12931e-06
-6.23744e-06
6.32778e-06
-9.15863e-06
8.96281e-06
-1.25073e-05
1.2013e-05
-1.62023e-05
1.54399e-05
-2.01296e-05
1.91916e-05
-2.41556e-05
2.32067e-05
-2.8138e-05
2.74107e-05
-3.19292e-05
3.17238e-05
-3.54016e-05
3.60569e-05
-3.84499e-05
4.03185e-05
-4.10006e-05
4.44203e-05
-4.30194e-05
4.82899e-05
-4.45365e-05
5.18898e-05
-4.56438e-05
5.51711e-05
-4.63862e-05
5.80951e-05
-4.68166e-05
-4.67972e-05
-7.82121e-07
1.94076e-06
-6.07369e-07
1.83377e-06
-1.61096e-07
1.19652e-06
6.09152e-07
1.10678e-07
1.75364e-06
-1.4017e-06
3.31842e-06
-3.36466e-06
5.3396e-06
-5.8055e-06
7.83443e-06
-8.73228e-06
1.07947e-05
-1.21189e-05
1.41863e-05
-1.58989e-05
1.79538e-05
-1.99699e-05
2.20252e-05
-2.42009e-05
2.63156e-05
-2.8446e-05
3.07237e-05
-3.25461e-05
3.51422e-05
-3.63477e-05
3.94573e-05
-3.97166e-05
4.35608e-05
-4.25534e-05
4.73669e-05
-4.48067e-05
5.08107e-05
-4.64632e-05
5.38575e-05
-4.75833e-05
5.65359e-05
-4.83222e-05
5.88752e-05
-4.87255e-05
6.08424e-05
-4.87839e-05
-4.83744e-05
-4.59885e-07
1.82624e-06
-6.62918e-08
1.44018e-06
6.89413e-07
4.40811e-07
1.86304e-06
-1.06295e-06
3.50187e-06
-3.04053e-06
5.63993e-06
-5.50272e-06
8.29121e-06
-8.45678e-06
1.14425e-05
-1.18836e-05
1.50518e-05
-1.57282e-05
1.90533e-05
-1.99004e-05
2.33578e-05
-2.42743e-05
2.78561e-05
-2.86993e-05
3.24238e-05
-3.30137e-05
3.6927e-05
-3.70494e-05
4.12289e-05
-4.06496e-05
4.5204e-05
-4.36917e-05
4.87636e-05
-4.6113e-05
5.18681e-05
-4.79112e-05
5.45027e-05
-4.90979e-05
5.6745e-05
-4.98255e-05
5.86546e-05
-5.02319e-05
6.02378e-05
-5.03086e-05
6.15054e-05
-5.00515e-05
-4.93288e-05
-1.72345e-07
1.59319e-06
4.3271e-07
8.35126e-07
1.49912e-06
-6.25604e-07
3.07505e-06
-2.63888e-06
5.19483e-06
-5.16032e-06
7.87049e-06
-8.17838e-06
1.1088e-05
-1.16743e-05
1.48008e-05
-1.55964e-05
1.89363e-05
-1.98638e-05
2.33911e-05
-2.43552e-05
2.80331e-05
-2.89163e-05
3.27174e-05
-3.33836e-05
3.72873e-05
-3.75836e-05
4.1581e-05
-4.1343e-05
4.54556e-05
-4.45242e-05
4.88189e-05
-4.7055e-05
5.16437e-05
-4.89379e-05
5.39594e-05
-5.02269e-05
5.58798e-05
-5.10183e-05
5.75011e-05
-5.14468e-05
5.88112e-05
-5.15419e-05
5.98436e-05
-5.13411e-05
6.06762e-05
-5.08841e-05
-4.99474e-05
3.01846e-08
1.29553e-06
8.40605e-07
2.4706e-08
2.22267e-06
-2.00767e-06
4.19813e-06
-4.61433e-06
6.77924e-06
-7.74143e-06
9.95195e-06
-1.13511e-05
1.36676e-05
-1.53899e-05
1.78485e-05
-1.97773e-05
2.23777e-05
-2.4393e-05
2.71021e-05
-2.90796e-05
3.18577e-05
-3.36719e-05
3.64658e-05
-3.79917e-05
4.074e-05
-4.18578e-05
4.45225e-05
-4.51256e-05
4.7722e-05
-4.77237e-05
5.03313e-05
-4.96643e-05
5.24131e-05
-5.10196e-05
5.40757e-05
-5.18895e-05
5.54266e-05
-5.23692e-05
5.65001e-05
-5.25203e-05
5.73647e-05
-5.24065e-05
5.80962e-05
-5.20726e-05
5.87006e-05
-5.14885e-05
-5.04316e-05
4.91778e-08
1.06319e-06
1.1159e-06
-1.04202e-06
2.83752e-06
-3.72929e-06
5.2168e-06
-6.99362e-06
8.24453e-06
-1.07692e-05
1.18739e-05
-1.49805e-05
1.60224e-05
-1.95383e-05
2.05596e-05
-2.43146e-05
2.53135e-05
-2.91468e-05
3.00986e-05
-3.38647e-05
3.47132e-05
-3.82865e-05
3.89493e-05
-4.22278e-05
4.26382e-05
-4.55467e-05
4.56947e-05
-4.8182e-05
4.81316e-05
-5.01606e-05
5.00364e-05
-5.15692e-05
5.15263e-05
-5.25095e-05
5.27045e-05
-5.30676e-05
5.36417e-05
-5.33064e-05
5.44073e-05
-5.3286e-05
5.50627e-05
-5.30619e-05
5.56381e-05
-5.2648e-05
5.61431e-05
-5.19934e-05
-5.08838e-05
-2.27868e-07
2.27868e-07
-8.02603e-07
5.74735e-07
-1.41836e-06
6.15755e-07
-1.81874e-06
4.0038e-07
-1.82739e-06
8.65273e-09
-3.45857e-07
-1.48153e-06
-3.98227e-07
6.26095e-07
-1.00671e-06
1.18322e-06
-1.56009e-06
1.16913e-06
-1.91243e-06
7.52726e-07
-1.96921e-06
6.54314e-08
-6.80626e-07
-1.63444e-06
-4.51382e-07
1.07748e-06
-1.03979e-06
1.77162e-06
-1.56459e-06
1.69393e-06
-1.90096e-06
1.0891e-06
-1.97285e-06
1.37316e-07
-9.75544e-07
-1.67793e-06
-4.78674e-07
1.55615e-06
-1.02934e-06
2.32229e-06
-1.52232e-06
2.18691e-06
-1.84407e-06
1.41084e-06
-1.91402e-06
2.07272e-07
-1.26928e-06
-1.62028e-06
-4.96831e-07
2.05298e-06
-9.97309e-07
2.82277e-06
-1.44994e-06
2.63954e-06
-1.75163e-06
1.71254e-06
-1.80676e-06
2.62398e-07
-1.59731e-06
-1.47873e-06
-5.00001e-07
2.55298e-06
-9.45514e-07
3.26829e-06
-1.35264e-06
3.04666e-06
-1.62873e-06
1.98863e-06
-1.65671e-06
2.90385e-07
-1.98036e-06
-1.27366e-06
-4.75746e-07
3.02873e-06
-8.7107e-07
3.66361e-06
-1.23194e-06
3.40753e-06
-1.47779e-06
2.23449e-06
-1.47158e-06
2.84169e-07
-2.42679e-06
-1.02515e-06
-4.32265e-07
3.46099e-06
-7.75443e-07
4.00679e-06
-1.08998e-06
3.72206e-06
-1.30294e-06
2.44745e-06
-1.26105e-06
2.42279e-07
-2.93508e-06
-7.52757e-07
-3.74114e-07
3.83511e-06
-6.61458e-07
4.29413e-06
-9.2874e-07
3.98934e-06
-1.10848e-06
2.6272e-06
-1.03569e-06
1.69488e-07
-3.49348e-06
-4.77293e-07
-3.03947e-07
4.13905e-06
-5.31211e-07
4.52139e-06
-7.50014e-07
4.20815e-06
-8.98486e-07
2.77567e-06
-8.05271e-07
7.62725e-08
-4.08004e-06
-2.18714e-07
-2.23624e-07
4.36268e-06
-3.8663e-07
4.6844e-06
-5.55485e-07
4.377e-06
-6.76145e-07
2.89633e-06
-5.7693e-07
-2.29426e-08
-4.67387e-06
1.69036e-08
-1.34999e-07
4.49768e-06
-2.29643e-07
4.77904e-06
-3.46624e-07
4.49398e-06
-4.43306e-07
2.99301e-06
-3.55766e-07
-1.10483e-07
-5.22669e-06
1.97054e-07
-3.97687e-08
4.53745e-06
-6.2415e-08
4.80169e-06
-1.24773e-07
4.55634e-06
-2.00583e-07
3.06882e-06
-1.42889e-07
-1.68177e-07
-5.71221e-06
3.42628e-07
5.97432e-08
4.4777e-06
1.1331e-07
4.74812e-06
1.08702e-07
4.56095e-06
5.30676e-08
3.12445e-06
6.1374e-08
-1.76483e-07
-6.10135e-06
4.50513e-07
1.62454e-07
4.31525e-06
2.95015e-07
4.61556e-06
3.52032e-07
4.50393e-06
3.19088e-07
3.1574e-06
2.79047e-07
-1.36442e-07
-6.34777e-06
5.25464e-07
2.70093e-07
4.04516e-06
4.79747e-07
4.40591e-06
6.02617e-07
4.38106e-06
5.97761e-07
3.16225e-06
4.9918e-07
-3.78617e-08
-6.4238e-06
5.75213e-07
3.89497e-07
3.65566e-06
6.62979e-07
4.13243e-06
8.57315e-07
4.18672e-06
8.89349e-07
3.13022e-06
7.33111e-07
1.18377e-07
-6.30288e-06
6.12194e-07
5.04472e-07
3.15119e-06
8.3513e-07
3.80177e-06
1.11161e-06
3.91024e-06
1.19404e-06
3.04779e-06
9.90322e-07
3.22094e-07
-5.96563e-06
6.53066e-07
5.60671e-07
2.59052e-06
9.83988e-07
3.37845e-06
1.36026e-06
3.53397e-06
1.51151e-06
2.89654e-06
1.28218e-06
5.51425e-07
-5.40244e-06
7.18989e-07
5.8506e-07
2.00546e-06
1.10835e-06
2.85516e-06
1.59871e-06
3.04362e-06
1.84057e-06
2.65468e-06
1.622e-06
7.69994e-07
-4.62083e-06
8.40398e-07
5.90289e-07
1.41517e-06
1.20479e-06
2.24066e-06
1.82106e-06
2.42735e-06
2.17898e-06
2.29676e-06
2.02404e-06
9.24933e-07
-3.6579e-06
1.06111e-06
5.73559e-07
8.41608e-07
1.26831e-06
1.54591e-06
2.01213e-06
1.68352e-06
2.52194e-06
1.78695e-06
2.49721e-06
9.4967e-07
-2.58879e-06
1.4281e-06
5.20533e-07
3.21075e-07
1.28509e-06
7.81348e-07
2.12542e-06
8.43201e-07
2.85124e-06
1.06113e-06
3.05105e-06
7.49863e-07
-1.42531e-06
1.88756e-06
3.21075e-07
1.10242e-06
1.94562e-06
3.00675e-06
3.75662e-06
2.33131e-06
-1.95093e-07
-2.23246e-07
1.26883e-06
-2.50594e-06
3.36529e-06
-5.82574e-06
6.15783e-06
-9.78616e-06
9.61752e-06
-1.42288e-05
1.36625e-05
-1.90255e-05
1.81499e-05
-2.40257e-05
2.28877e-05
-2.90523e-05
2.76661e-05
-3.39253e-05
3.22598e-05
-3.84584e-05
3.64415e-05
-4.24682e-05
4.00372e-05
-4.58235e-05
4.29716e-05
-4.8481e-05
4.5276e-05
-5.04865e-05
4.70541e-05
-5.19388e-05
4.84292e-05
-5.29443e-05
4.95074e-05
-5.35878e-05
5.03681e-05
-5.39283e-05
5.10765e-05
-5.40147e-05
5.16889e-05
-5.38984e-05
5.22421e-05
-5.36151e-05
5.27546e-05
-5.31605e-05
5.32326e-05
-5.24714e-05
-5.13467e-05
-3.74345e-07
-1.48334e-06
1.4064e-06
-4.28669e-06
3.87926e-06
-8.2986e-06
7.08151e-06
-1.29884e-05
1.09477e-05
-1.8095e-05
1.53284e-05
-2.34061e-05
2.00086e-05
-2.8706e-05
2.47511e-05
-3.37948e-05
2.9304e-05
-3.84781e-05
3.34221e-05
-4.25765e-05
3.69299e-05
-4.5976e-05
3.97645e-05
-4.8658e-05
4.1973e-05
-5.06895e-05
4.36676e-05
-5.21811e-05
4.49721e-05
-5.32432e-05
4.59903e-05
-5.39625e-05
4.68008e-05
-5.43983e-05
4.74659e-05
-5.45935e-05
4.80402e-05
-5.45889e-05
4.85674e-05
-5.44256e-05
4.90711e-05
-5.41188e-05
4.95619e-05
-5.36513e-05
5.00414e-05
-5.29509e-05
-5.18361e-05
-4.08875e-07
-2.75239e-06
1.6241e-06
-6.31967e-06
4.45425e-06
-1.11287e-05
8.04501e-06
-1.65792e-05
1.22486e-05
-2.22986e-05
1.68274e-05
-2.79849e-05
2.15092e-05
-3.33878e-05
2.60093e-05
-3.82949e-05
3.00633e-05
-4.25321e-05
3.34946e-05
-4.60078e-05
3.62519e-05
-4.87334e-05
3.83935e-05
-5.07996e-05
4.0034e-05
-5.233e-05
4.12934e-05
-5.34404e-05
4.2272e-05
-5.42219e-05
4.30476e-05
-5.4738e-05
4.3681e-05
-5.50317e-05
4.4224e-05
-5.51364e-05
4.47212e-05
-5.50862e-05
4.52031e-05
-5.49074e-05
4.5683e-05
-5.45988e-05
4.61654e-05
-5.41336e-05
4.66507e-05
-5.34362e-05
-5.23482e-05
-3.03473e-07
-4.0692e-06
1.9652e-06
-8.58834e-06
5.13217e-06
-1.42957e-05
9.05335e-06
-2.05003e-05
1.34704e-05
-2.67157e-05
1.80639e-05
-3.25784e-05
2.25049e-05
-3.78288e-05
2.65024e-05
-4.22925e-05
2.98745e-05
-4.59041e-05
3.25771e-05
-4.87104e-05
3.46745e-05
-5.08308e-05
3.62803e-05
-5.24054e-05
3.75096e-05
-5.35592e-05
3.84589e-05
-5.43898e-05
3.9205e-05
-5.4968e-05
3.98086e-05
-5.53417e-05
4.03206e-05
-5.55436e-05
4.07842e-05
-5.56e-05
4.12332e-05
-5.55352e-05
4.16857e-05
-5.53598e-05
4.21477e-05
-5.50608e-05
4.26197e-05
-5.46056e-05
4.3104e-05
-5.39205e-05
-5.28705e-05
-7.19794e-08
-5.47596e-06
2.43132e-06
-1.10916e-05
5.89984e-06
-1.77642e-05
1.00522e-05
-2.46527e-05
1.4514e-05
-3.11775e-05
1.88899e-05
-3.69543e-05
2.28447e-05
-4.17835e-05
2.61792e-05
-4.5627e-05
2.88493e-05
-4.85742e-05
3.0921e-05
-5.07821e-05
3.25056e-05
-5.24154e-05
3.37139e-05
-5.36137e-05
3.46395e-05
-5.44848e-05
3.53579e-05
-5.51083e-05
3.59302e-05
-5.55402e-05
3.64067e-05
-5.58181e-05
3.68298e-05
-5.59668e-05
3.72339e-05
-5.60042e-05
3.76421e-05
-5.59434e-05
3.80637e-05
-5.57814e-05
3.85006e-05
-5.54978e-05
3.89519e-05
-5.50569e-05
3.94227e-05
-5.43913e-05
-5.33872e-05
2.56164e-07
-7.00578e-06
2.99475e-06
-1.38302e-05
6.69943e-06
-2.14689e-05
1.09454e-05
-2.88987e-05
1.52383e-05
-3.54705e-05
1.91655e-05
-4.08815e-05
2.24882e-05
-4.51062e-05
2.51491e-05
-4.82879e-05
2.72118e-05
-5.06368e-05
2.87854e-05
-5.23558e-05
2.99786e-05
-5.36086e-05
3.08832e-05
-5.45183e-05
3.15741e-05
-5.51757e-05
3.21124e-05
-5.56466e-05
3.25484e-05
-5.59762e-05
3.29242e-05
-5.61939e-05
3.32739e-05
-5.63165e-05
3.36231e-05
-5.63533e-05
3.39859e-05
-5.63062e-05
3.43668e-05
-5.61623e-05
3.47659e-05
-5.58969e-05
3.51829e-05
-5.54739e-05
3.56253e-05
-5.48337e-05
-5.38806e-05
6.46554e-07
-8.67749e-06
3.60312e-06
-1.67868e-05
7.45364e-06
-2.53195e-05
1.16081e-05
-3.30531e-05
1.55165e-05
-3.93789e-05
1.88554e-05
-4.42204e-05
2.1533e-05
-4.77838e-05
2.36039e-05
-5.03588e-05
2.51764e-05
-5.22093e-05
2.63589e-05
-5.35384e-05
2.72437e-05
-5.44934e-05
2.79062e-05
-5.51807e-05
2.84078e-05
-5.56774e-05
2.87992e-05
-5.6038e-05
2.9122e-05
-5.62991e-05
2.94102e-05
-5.6482e-05
2.96899e-05
-5.65963e-05
2.99789e-05
-5.66423e-05
3.02858e-05
-5.66131e-05
3.06127e-05
-5.64893e-05
3.096e-05
-5.62441e-05
3.13283e-05
-5.58423e-05
3.17266e-05
-5.5232e-05
-5.43333e-05
1.06645e-06
-1.04967e-05
4.19445e-06
-1.99148e-05
8.06047e-06
-2.91855e-05
1.19303e-05
-3.69229e-05
1.53119e-05
-4.27605e-05
1.80365e-05
-4.6945e-05
2.01369e-05
-4.98842e-05
2.17199e-05
-5.19418e-05
2.28968e-05
-5.33863e-05
2.37626e-05
-5.44041e-05
2.43948e-05
-5.51256e-05
2.48567e-05
-5.56427e-05
2.51999e-05
-5.60206e-05
2.54662e-05
-5.63042e-05
2.56886e-05
-5.65215e-05
2.5893e-05
-5.66865e-05
2.60986e-05
-5.68018e-05
2.63175e-05
-5.68612e-05
2.65555e-05
-5.6851e-05
2.68146e-05
-5.67484e-05
2.70957e-05
-5.65253e-05
2.74013e-05
-5.61479e-05
2.77408e-05
-5.55714e-05
-5.473e-05
1.47949e-06
-1.24535e-05
4.70911e-06
-2.31444e-05
8.43254e-06
-3.29089e-05
1.18691e-05
-4.03595e-05
1.46766e-05
-4.55681e-05
1.68349e-05
-4.91032e-05
1.84451e-05
-5.14945e-05
1.96243e-05
-5.3121e-05
2.04729e-05
-5.42349e-05
2.1073e-05
-5.50042e-05
2.14913e-05
-5.55439e-05
2.1782e-05
-5.59333e-05
2.19879e-05
-5.62265e-05
2.2142e-05
-5.64583e-05
2.22693e-05
-5.66488e-05
2.23882e-05
-5.68054e-05
2.25121e-05
-5.69257e-05
2.26496e-05
-5.69988e-05
2.28058e-05
-5.70072e-05
2.29836e-05
-5.69262e-05
2.31857e-05
-5.67274e-05
2.34156e-05
-5.63778e-05
2.36831e-05
-5.58389e-05
-5.50573e-05
1.84771e-06
-1.45199e-05
5.09025e-06
-2.63869e-05
8.52465e-06
-3.63433e-05
1.14512e-05
-4.3286e-05
1.37066e-05
-4.78235e-05
1.53696e-05
-5.07662e-05
1.65645e-05
-5.26893e-05
1.74012e-05
-5.39577e-05
1.79689e-05
-5.48025e-05
1.83396e-05
-5.53749e-05
1.85718e-05
-5.57761e-05
1.87115e-05
-5.6073e-05
1.87934e-05
-5.63084e-05
1.88421e-05
-5.65071e-05
1.8875e-05
-5.66817e-05
1.89041e-05
-5.68345e-05
1.89383e-05
-5.69598e-05
1.89842e-05
-5.70447e-05
1.9047e-05
-5.707e-05
1.91315e-05
-5.70108e-05
1.92424e-05
-5.68382e-05
1.93846e-05
-5.65201e-05
1.95682e-05
-5.60225e-05
-5.53038e-05
2.14026e-06
-1.66433e-05
5.29575e-06
-2.95424e-05
8.33709e-06
-3.93846e-05
1.07416e-05
-4.56905e-05
1.24977e-05
-4.95796e-05
1.37316e-05
-5.20001e-05
1.45679e-05
-5.35256e-05
1.51066e-05
-5.44964e-05
1.54273e-05
-5.51233e-05
1.55948e-05
-5.55424e-05
1.56603e-05
-5.58416e-05
1.56623e-05
-5.6075e-05
1.56275e-05
-5.62735e-05
1.55732e-05
-5.64528e-05
1.55101e-05
-5.66186e-05
1.5445e-05
-5.67694e-05
1.53831e-05
-5.68979e-05
1.53294e-05
-5.69911e-05
1.52898e-05
-5.70303e-05
1.52708e-05
-5.69917e-05
1.52792e-05
-5.68466e-05
1.53224e-05
-5.65633e-05
1.54114e-05
-5.61115e-05
-5.54607e-05
2.33675e-06
-1.8783e-05
5.31056e-06
-3.25162e-05
7.90686e-06
-4.19809e-05
9.81587e-06
-4.75995e-05
1.11282e-05
-5.0892e-05
1.19858e-05
-5.28577e-05
1.25055e-05
-5.40453e-05
1.27784e-05
-5.47692e-05
1.28772e-05
-5.52221e-05
1.28601e-05
-5.55254e-05
1.27717e-05
-5.57532e-05
1.26432e-05
-5.59465e-05
1.24942e-05
-5.61246e-05
1.2336e-05
-5.62946e-05
1.21741e-05
-5.64567e-05
1.20113e-05
-5.66065e-05
1.18496e-05
-5.67362e-05
1.16922e-05
-5.68337e-05
1.15445e-05
-5.68826e-05
1.14142e-05
-5.68614e-05
1.13106e-05
-5.67431e-05
1.1244e-05
-5.64967e-05
1.12285e-05
-5.60959e-05
-5.5522e-05
2.43517e-06
-2.08755e-05
5.1458e-06
-3.52269e-05
7.28693e-06
-4.41221e-05
8.74131e-06
-4.90539e-05
9.65754e-06
-5.18082e-05
1.01784e-05
-5.33786e-05
1.04125e-05
-5.42794e-05
1.04436e-05
-5.48003e-05
1.03385e-05
-5.5117e-05
1.01495e-05
-5.53363e-05
9.91423e-06
-5.5518e-05
9.65736e-06
-5.56896e-05
9.39285e-06
-5.58601e-05
9.12732e-06
-5.60291e-05
8.8629e-06
-5.61923e-05
8.59951e-06
-5.63431e-05
8.33675e-06
-5.64734e-05
8.07557e-06
-5.65725e-05
7.81966e-06
-5.66267e-05
7.57644e-06
-5.66182e-05
7.35667e-06
-5.65233e-05
7.17214e-06
-5.63122e-05
7.03842e-06
-5.59622e-05
-5.54856e-05
2.4443e-06
-2.28693e-05
4.8331e-06
-3.76157e-05
6.53189e-06
-4.58209e-05
7.57119e-06
-5.00932e-05
8.12874e-06
-5.23658e-05
8.34303e-06
-5.35929e-05
8.31484e-06
-5.42512e-05
8.12198e-06
-5.46075e-05
7.82573e-06
-5.48207e-05
7.47213e-06
-5.49827e-05
7.09248e-06
-5.51383e-05
6.7055e-06
-5.53026e-05
6.3207e-06
-5.54753e-05
5.94179e-06
-5.56502e-05
5.56913e-06
-5.58196e-05
5.20146e-06
-5.59755e-05
4.83726e-06
-5.61092e-05
4.47602e-06