/*--------------------------------*- C++ -*----------------------------------*\
  =========                 |
  \\      /  F ield         | OpenFOAM: The Open Source CFD Toolbox
   \\    /   O peration     | Website:  https://openfoam.org
    \\  /    A nd           | Version:  11
     \\/     M anipulation  |
\*---------------------------------------------------------------------------*/
FoamFile
{
    format      ascii;
    class       surfaceVectorField;
    location    "0.36";
    object      Uf;
}
// * * * * * * * * * * * * * * * * * * * * * * * * * * * * * * * * * * * * * //

dimensions      [0 1 -1 0 0 0 0];

internalField   nonuniform List<vector> 
5640
(
(0.0444705 0.0152879 2.6402e-19)
(0.0378586 0.0119553 2.40161e-19)
(0.0804974 -0.0117661 -1.0747e-19)
(0.0607628 -0.00282075 1.06163e-20)
(0.118535 -0.0403615 -3.60997e-19)
(0.104512 -0.0358809 -8.13247e-21)
(0.161964 -0.0749321 -3.15636e-19)
(0.133665 -0.0573722 -1.44242e-19)
(0.199394 -0.11118 -1.26104e-19)
(0.182571 -0.0949051 -9.69297e-20)
(0.18254 -0.0832424 -9.157e-20)
(0.328374 -0.0688618 -1.5026e-19)
(0.0495581 -0.00323019 0)
(0.0408343 0.000801122 -1.17923e-20)
(0.0826841 -0.029609 1.20202e-19)
(0.062043 -0.0183669 1.65093e-23)
(0.115069 -0.054972 2.31874e-19)
(0.0985909 -0.0468474 1.32865e-19)
(0.146263 -0.0775929 8.47707e-20)
(0.121125 -0.0647971 1.31477e-19)
(0.17825 -0.0928762 -4.87815e-20)
(0.153227 -0.0851761 -2.33691e-20)
(0.15911 -0.072173 6.47267e-20)
(0.248834 -0.0423352 -1.42471e-20)
(0.0487306 -0.012299 -1.0716e-20)
(0.0395711 -0.0069656 -1.17923e-20)
(0.0769003 -0.0366446 6.19742e-21)
(0.0584897 -0.0268574 1.65093e-23)
(0.102999 -0.0570912 3.25148e-20)
(0.0878295 -0.0501098 7.32077e-21)
(0.125015 -0.070968 2.60052e-20)
(0.104509 -0.0627098 -8.32601e-20)
(0.146952 -0.0743111 7.58034e-20)
(0.125517 -0.0711044 3.3748e-20)
(0.13448 -0.055006 -3.7921e-20)
(0.190926 -0.0317585 1.60661e-19)
(0.0461124 -0.0192324 0)
(0.0376932 -0.0144069 2.90247e-21)
(0.0692904 -0.040417 0)
(0.0537654 -0.0323812 0)
(0.0889684 -0.0553718 -1.05394e-19)
(0.0760973 -0.0500374 0)
(0.103928 -0.0618527 -8.01458e-20)
(0.0875168 -0.0569089 -1.6389e-20)
(0.119258 -0.0569021 -5.84669e-20)
(0.100613 -0.0567481 3.25797e-20)
(0.109278 -0.0383005 -1.00243e-19)
(0.150087 -0.0217586 -9.27996e-20)
(0.0428955 -0.0251815 3.06992e-21)
(0.0354628 -0.0214589 2.90247e-21)
(0.0608898 -0.0418518 0)
(0.0483751 -0.0354999 0)
(0.074519 -0.0512311 8.8999e-20)
(0.0640099 -0.0476226 1.03665e-19)
(0.0837216 -0.0514297 9.46934e-20)
(0.0706561 -0.0490307 9.21109e-20)
(0.0936442 -0.0408299 0)
(0.0775685 -0.0425356 -2.03978e-20)
(0.0837634 -0.0222807 1.83671e-20)
(0.115102 -0.0102139 -1.04575e-19)
(0.0390849 -0.0296397 0)
(0.0311393 -0.026907 0)
(0.0519523 -0.0411583 9.92541e-20)
(0.0420117 -0.0363202 -8.17595e-21)
(0.0600645 -0.0452969 1.07168e-19)
(0.0516877 -0.0434535 9.50426e-21)
(0.0643096 -0.0402029 -1.98259e-20)
(0.0540552 -0.0399362 -8.71602e-20)
(0.0692625 -0.0255548 -4.6085e-21)
(0.055804 -0.028532 -9.89278e-20)
(0.0584144 -0.00676948 1.83671e-20)
(0.0828741 0.00258121 9.31491e-22)
(0.0323891 -0.0324003 -7.70426e-21)
(0.0235693 -0.0299798 -2.2438e-19)
(0.0421779 -0.0386881 -9.89648e-20)
(0.0342592 -0.0354155 -8.17595e-21)
(0.0456677 -0.0381871 -1.81428e-19)
(0.0391867 -0.0381313 -9.40358e-20)
(0.0455654 -0.028581 -1.65932e-19)
(0.0378039 -0.0302009 -1.27661e-20)
(0.0458693 -0.0107937 -8.04125e-20)
(0.0350892 -0.014805 7.84442e-21)
(0.0336704 0.00828942 -7.05409e-20)
(0.0526113 0.0160546 0)
(0.0237922 -0.0329134 -2.37325e-19)
(0.0150442 -0.0317177 -2.09971e-21)
(0.0316558 -0.0350983 0)
(0.0254242 -0.0336508 -7.92466e-21)
(0.0314326 -0.0304349 7.18753e-20)
(0.026683 -0.0322252 1.21197e-20)
(0.027495 -0.0168851 1.60318e-19)
(0.0220265 -0.02025 1.11263e-19)
(0.0234913 0.00347738 1.95513e-20)
(0.0154179 -0.00147094 7.68128e-20)
(0.00992843 0.0228777 7.41927e-21)
(0.0241576 0.0297999 -1.12638e-19)
(0.015503 -0.0325323 2.29124e-19)
(0.00746719 -0.0329191 1.11523e-19)
(0.0208365 -0.031047 3.1445e-21)
(0.0161484 -0.0314627 -7.92466e-21)
(0.0175272 -0.0224845 4.82051e-20)
(0.0144114 -0.0261504 6.01825e-20)
(0.0102264 -0.00538989 2.86566e-20)
(0.0069006 -0.0104208 -4.63034e-21)
(0.00230927 0.0172296 6.62047e-20)
(-0.00309193 0.011341 -1.88978e-20)
(-0.0124356 0.0369391 7.78922e-20)
(-0.0023918 0.043534 1.20766e-19)
(0.00748045 -0.0318999 -1.18635e-19)
(0.000691068 -0.033414 -7.00743e-23)
(0.0100949 -0.0268956 4.60176e-20)
(0.00687364 -0.0291194 0)
(0.0041554 -0.0146599 9.58556e-21)
(0.00257542 -0.020197 4.4913e-22)
(-0.0060538 0.005677 -5.1783e-20)
(-0.00737958 -0.000979248 -3.2141e-22)
(-0.0174277 0.030381 -9.7542e-21)
(-0.0202798 0.0235016 2.74626e-20)
(-0.0330789 0.0503936 -6.69943e-23)
(-0.0267962 0.0570282 4.85592e-21)
(-0.000109565 -0.030877 1.1848e-19)
(-0.00534851 -0.0331254 1.12017e-19)
(-0.00029571 -0.0228478 -4.55971e-20)
(-0.00211885 -0.0267834 0)
(-0.0084903 -0.00720115 -9.44209e-21)
(-0.00864804 -0.0145788 -6.83826e-20)
(-0.0211684 0.0161418 7.81452e-20)
(-0.0206531 0.00787629 1.29858e-20)
(-0.0355133 0.0428416 3.77249e-20)
(-0.0359813 0.034897 -1.35402e-20)
(-0.0517074 0.0631332 1.66689e-20)
(-0.0487956 0.0700945 -2.41798e-20)
(-0.00717333 -0.0294318 0)
(-0.0106883 -0.0320255 1.40422e-20)
(-0.0101435 -0.0190484 -1.98756e-20)
(-0.0106434 -0.0245498 -7.67185e-21)
(-0.0202556 -0.00028697 -4.8673e-20)
(-0.0191255 -0.00945067 2.99831e-21)
(-0.0349704 0.0258617 -7.79796e-20)
(-0.0328037 0.0159934 -4.86596e-20)
(-0.0517378 0.0544984 -3.53216e-20)
(-0.0500612 0.045408 -3.44331e-20)
(-0.0680853 0.0750352 2.1236e-21)
(-0.0681399 0.0825543 3.86701e-20)
(-0.013598 -0.0276026 7.62303e-21)
(-0.0154047 -0.0301269 1.00173e-22)
(-0.0193175 -0.0155899 1.47493e-20)
(-0.0185698 -0.0224524 -4.32908e-23)
(-0.031043 0.00595213 4.78987e-21)
(-0.0287812 -0.00492036 2.37587e-20)
(-0.0473544 0.0347073 -5.53248e-21)
(-0.0437639 0.023243 -2.04628e-20)
(-0.065948 0.065227 2.13137e-21)
(-0.062429 0.0549088 1.59512e-20)
(-0.0820463 0.0859554 -1.45487e-20)
(-0.0846255 0.0942278 -1.21906e-20)
(-0.0194495 -0.025408 -7.54718e-21)
(-0.0195798 -0.0274561 -1.34956e-20)
(-0.0277421 -0.0125232 7.95225e-21)
(-0.0258176 -0.020501 7.62767e-21)
(-0.0408064 0.0114124 0)
(-0.0375939 -0.001063 -2.4021e-20)
(-0.0582668 0.0425522 0)
(-0.0535184 0.0295066 0)
(-0.0780514 0.0748858 0)
(-0.0730509 0.0632604 -1.59329e-20)
(-0.0935011 0.0957266 -2.05612e-21)
(-0.0981178 0.104923 -4.91611e-21)
(-0.0247296 -0.0228657 4.64878e-22)
(-0.0232837 -0.0240644 1.09579e-19)
(-0.03539 -0.00987138 -2.29988e-20)
(-0.0323426 -0.0186689 1.93841e-21)
(-0.0495531 0.0160064 -2.48325e-20)
(-0.0455944 0.00206989 3.77401e-22)
(-0.0677113 0.0492659 -1.54862e-20)
(-0.0621066 0.0346676 0)
(-0.0880245 0.0833124 -1.83252e-20)
(-0.0819559 0.0703057 7.0756e-21)
(-0.102439 0.104156 -6.17974e-21)
(-0.108565 0.114431 -2.39781e-21)
(-0.0294557 -0.020013 1.17102e-19)
(-0.0265588 -0.0200172 -1.13157e-19)
(-0.0422742 -0.00763216 2.5379e-20)
(-0.0381265 -0.0168948 6.76788e-20)
(-0.0573438 0.0196562 2.52205e-20)
(-0.0528647 0.00444651 2.13124e-20)
(-0.0757517 0.0547063 2.23684e-20)
(-0.0696231 0.0386045 -4.21741e-20)
(-0.0959155 0.0903198 1.9526e-20)
(-0.0892389 0.0758636 2.30136e-20)
(-0.108929 0.111025 2.91459e-20)
(-0.116007 0.122524 -4.80888e-21)
(-0.0336196 -0.0169659 -1.73122e-19)
(-0.0293883 -0.0153783 -1.102e-19)
(-0.0484413 -0.00577603 6.54877e-20)
(-0.0431604 -0.0150767 3.87605e-22)
(-0.0642922 0.0222909 -4.39374e-20)
(-0.0595358 0.00605472 -3.08387e-21)
(-0.0825118 0.0587156 -4.33566e-20)
(-0.076217 0.0411877 1.07165e-21)
(-0.101844 0.0956935 3.24719e-20)
(-0.0950613 0.0797241 -3.75847e-20)
(-0.113103 0.116087 -4.28488e-22)
(-0.12057 0.128956 7.18899e-22)
(-0.0371175 -0.0138582 5.83189e-20)
(-0.0317449 -0.0102176 3.2552e-19)
(-0.0539651 -0.00423385 -6.81276e-20)
(-0.0473663 -0.013032 7.75088e-20)
(-0.0705643 0.0238475 4.1792e-20)
(-0.0657876 0.00690682 9.83371e-20)
(-0.0881745 0.0611169 7.93501e-21)
(-0.0820922 0.0422782 -5.63864e-20)
(-0.105994 0.0991876 -7.14181e-20)
(-0.0996531 0.0816401 8.71931e-22)
(-0.115144 0.119067 -9.29059e-20)
(-0.122465 0.133465 -3.91114e-20)
(-0.040225 -0.00900793 3.59018e-19)
(-0.032934 -0.00439898 3.45024e-20)
(-0.0589172 -0.00284727 2.42786e-19)
(-0.0506561 -0.0104595 1.2908e-19)
(-0.0763826 0.0242789 5.38583e-21)
(-0.07186 0.00705574 -4.90659e-21)
(-0.0929844 0.0617102 -6.51013e-20)
(-0.0875128 0.041728 -7.37219e-21)
(-0.108608 0.100513 -1.81877e-20)
(-0.103324 0.0813117 4.8408e-20)
(-0.115252 0.119669 -4.9796e-20)
(-0.121967 0.135778 -2.08503e-20)
(-0.041663 -0.00431547 -1.9684e-19)
(-0.033233 0.00181269 -3.48685e-19)
(-0.0634519 -0.00143919 -1.12133e-19)
(-0.0535298 -0.0070771 -1.35961e-20)
(-0.0820352 0.0235488 -1.74126e-20)
(-0.0780582 0.00659041 -1.03063e-19)
(-0.097253 0.0602599 1.04477e-19)
(-0.0928137 0.0393802 -3.62588e-21)
(-0.109996 0.0993279 1.92953e-20)
(-0.106487 0.0783639 3.04255e-20)
(-0.113578 0.117573 6.26486e-20)
(-0.1194 0.135626 -7.2918e-21)
(-0.0428717 0.000497061 -1.84067e-19)
(-0.0336246 0.00796057 1.28924e-20)
(-0.0681616 2.52381e-06 7.7065e-23)
(-0.0565746 -0.00288189 -1.58611e-19)
(-0.0878506 0.0215821 -9.26357e-20)
(-0.0846273 0.0055813 0)
(-0.101356 0.0564582 -7.86319e-20)
(-0.0984029 0.0350807 1.86902e-20)
(-0.110501 0.0951651 7.20716e-20)
(-0.109682 0.0723041 9.81423e-21)
(-0.110126 0.11248 5.35439e-20)
(-0.115144 0.132746 1.38823e-19)
(-0.0443092 0.00558437 4.93324e-20)
(-0.0337837 0.0141469 1.8497e-19)
(-0.0731619 0.00142044 -1.65955e-19)
(-0.0596246 0.00240791 -1.59181e-19)
(-0.0940604 0.0182842 1.11036e-19)
(-0.0914485 0.00439457 0)
(-0.105745 0.0499527 1.08309e-19)
(-0.104663 0.0288075 1.14919e-19)
(-0.110559 0.0875716 -1.0948e-20)
(-0.113478 0.0625386 1.14851e-20)
(-0.104413 0.10441 -7.26427e-20)
(-0.1099 0.127105 -9.7114e-20)
(-0.0449637 0.0116439 -3.68847e-21)
(-0.0306248 0.0222608 2.4752e-19)
(-0.0779986 0.00333222 0)
(-0.0587567 0.0119835 -1.88175e-19)
(-0.100485 0.0140201 0)
(-0.0960989 0.00529835 -1.75499e-20)
(-0.110928 0.0408407 2.1555e-20)
(-0.110682 0.021781 -9.96537e-20)
(-0.110599 0.0767352 -5.36059e-20)
(-0.117369 0.0490451 -7.16544e-20)
(-0.0951805 0.0944025 2.23146e-20)
(-0.104972 0.119202 -1.37508e-20)
(-0.0404461 0.0248909 8.92359e-20)
(-0.0784529 0.0131069 -2.12985e-19)
(-0.10634 0.0163204 -1.16474e-19)
(-0.118282 0.0356456 -1.93648e-19)
(-0.112469 0.0676833 -1.98376e-20)
(-0.102435 0.109544 1.28518e-20)
(0.706737 -0.0910056 1.12093e-21)
(0.47082 -0.0429888 -5.29362e-20)
(0.662185 -0.0900043 7.23586e-20)
(0.919675 -0.101062 -5.17698e-20)
(0.757279 -0.0658403 -1.94268e-20)
(0.889427 -0.105069 1.43794e-20)
(1.05662 -0.112038 -5.38604e-20)
(0.939441 -0.0860683 4.98482e-20)
(1.03624 -0.111868 -9.02411e-21)
(1.14908 -0.120879 1.38784e-20)
(1.06393 -0.102939 0)
(1.13592 -0.120096 1.64852e-20)
(1.21378 -0.126703 -2.35694e-20)
(1.15234 -0.115508 2.98685e-20)
(1.20569 -0.126483 -1.35061e-20)
(1.25902 -0.129492 -4.08238e-20)
(1.21521 -0.122953 -1.22022e-20)
(1.25377 -0.129886 -3.58067e-20)
(1.28981 -0.12961 -1.45247e-20)
(1.25985 -0.126343 -1.18101e-20)
(1.28601 -0.130439 4.50244e-21)
(1.31013 -0.127616 6.64611e-21)
(1.29074 -0.127024 5.15892e-21)
(1.3065 -0.128744 -4.00291e-21)
(1.32357 -0.123986 2.53425e-20)
(1.31164 -0.125421 -3.60206e-21)
(1.31955 -0.125398 1.95326e-21)
(1.33305 -0.118814 -1.72366e-21)
(1.32615 -0.121984 -2.1817e-21)
(1.32817 -0.120507 -4.31993e-21)
(1.33963 -0.112099 -2.41996e-21)
(1.3367 -0.116599 5.89711e-21)
(1.33373 -0.114255 -4.18224e-21)
(1.34358 -0.104051 6.41397e-21)
(1.34461 -0.109647 -5.80298e-21)
(1.33685 -0.106728 3.79742e-21)
(1.34562 -0.0948923 3.89093e-21)
(1.35001 -0.101301 -1.92592e-21)
(1.3383 -0.0981168 -1.99652e-21)
(1.34615 -0.0848616 3.57878e-21)
(1.35322 -0.0916471 -1.26253e-21)
(1.33836 -0.0886639 2.2142e-21)
(1.34523 -0.0742143 0)
(1.35464 -0.0809998 0)
(1.33712 -0.0786016 0)
(1.34281 -0.0632634 3.08879e-21)
(1.35434 -0.0697125 1.06463e-21)
(1.33452 -0.06818 -7.18821e-21)
(1.3387 -0.0523266 7.52685e-21)
(1.35229 -0.0581217 2.91996e-21)
(1.3304 -0.0576871 6.78674e-21)
(1.33263 -0.0417577 -5.90749e-21)
(1.34834 -0.046593 6.36559e-21)
(1.32453 -0.0474408 1.38672e-20)
(1.32421 -0.0319742 7.50754e-21)
(1.34221 -0.0355383 -1.04882e-20)
(1.31654 -0.037808 -1.5332e-20)
(1.3129 -0.0234776 -5.71879e-22)
(1.33347 -0.0253877 2.13574e-20)
(1.3059 -0.0291762 1.3694e-20)
(1.29788 -0.0169429 -6.60718e-21)
(1.32144 -0.0165572 -1.84775e-20)
(1.29181 -0.021954 -3.95058e-20)
(1.27761 -0.0136202 3.75933e-20)
(1.30551 -0.0101624 2.34577e-21)
(1.27367 -0.0174109 2.67884e-20)
(1.24873 -0.016427 1.22911e-19)
(1.28596 -0.0103095 2.27147e-20)
(1.25178 -0.0199841 2.81041e-20)
(1.26089 -0.0248951 -2.65571e-20)
(1.22354 -0.0354109 -2.65571e-20)
(0.52444 -0.0331508 -4.95297e-20)
(0.320473 -0.00745414 5.15167e-20)
(0.768993 -0.053933 9.01897e-20)
(0.579743 -0.018566 -3.80712e-20)
(0.943189 -0.0780348 1.14466e-19)
(0.781369 -0.0394137 7.53363e-20)
(1.06589 -0.0974913 1.54906e-20)
(0.933145 -0.062235 2.24968e-20)
(1.15339 -0.111077 3.90468e-20)
(1.04776 -0.0821468 -4.72383e-21)
(1.21586 -0.119253 1.27909e-20)
(1.13508 -0.0975346 2.29443e-20)
(1.26061 -0.123457 6.4861e-21)
(1.2012 -0.108932 -1.08088e-20)
(1.2923 -0.124727 -3.96432e-21)
(1.24938 -0.115715 -2.61026e-21)
(1.31433 -0.123307 -3.0357e-20)
(1.28465 -0.118678 -2.18265e-20)
(1.32984 -0.119758 5.00582e-21)
(1.31009 -0.118564 1.48071e-20)
(1.34166 -0.114369 2.95158e-21)
(1.32868 -0.115884 1.20955e-20)
(1.35097 -0.10706 -1.41458e-20)
(1.34313 -0.110731 -1.05779e-20)
(1.35767 -0.098129 -6.85637e-21)
(1.35431 -0.103118 -2.48028e-21)
(1.36183 -0.0878339 -4.42951e-21)
(1.36298 -0.0937299 -1.16003e-21)
(1.36383 -0.0765255 1.05617e-21)
(1.36903 -0.08298 -5.17227e-21)
(1.36391 -0.064596 8.81736e-22)
(1.37256 -0.0712606 -1.42118e-21)
(1.36202 -0.0524092 2.00634e-21)
(1.37362 -0.0587039 1.93311e-21)
(1.358 -0.0403843 2.23163e-21)
(1.37232 -0.0458349 3.53164e-21)
(1.35158 -0.0289992 3.28534e-21)
(1.36852 -0.0332034 -3.63981e-22)
(1.34234 -0.0187607 9.14851e-22)
(1.36201 -0.0213166 3.71814e-21)
(1.32964 -0.0102977 -9.64035e-21)
(1.35232 -0.0105933 -2.97481e-22)
(1.31204 -0.00483785 -1.23986e-20)
(1.33903 -0.00198273 -2.61736e-21)
(1.28583 -0.00574651 -5.17496e-21)
(1.32228 0.00117059 -5.14537e-21)
(1.30183 -0.0114339 3.03835e-21)
(0.37526 0.00129545 8.78302e-20)
(0.229163 0.00445684 1.28697e-19)
(0.586231 -0.00403156 -5.84779e-20)
(0.418161 0.0172964 -4.06746e-20)
(0.767454 -0.0240861 -2.0765e-20)
(0.598934 0.00966681 -2.63903e-20)
(0.912459 -0.0475017 2.99889e-21)
(0.753176 -0.00833524 8.32353e-21)
(1.02762 -0.0693949 -2.0789e-20)
(0.880665 -0.029557 -2.04779e-20)
(1.11909 -0.087475 0)
(0.987065 -0.0505218 0)
(1.18952 -0.100852 -1.97477e-20)
(1.07599 -0.068502 0)
(1.24194 -0.109261 -2.02433e-20)
(1.14915 -0.0827193 -2.54376e-20)
(1.28069 -0.113495 2.0521e-20)
(1.20833 -0.0938223 1.8724e-20)
(1.30935 -0.114294 2.00382e-20)
(1.25454 -0.101093 3.39421e-20)
(1.33068 -0.111814 -2.9363e-21)
(1.29038 -0.10413 -2.47764e-20)
(1.34691 -0.106471 -1.70226e-21)
(1.31837 -0.10311 8.47281e-21)
(1.35981 -0.0987253 3.15263e-21)
(1.34023 -0.0988225 -1.45809e-20)
(1.37016 -0.0890184 -1.92205e-21)
(1.35747 -0.0917506 1.69757e-20)
(1.37774 -0.0778227 -7.62666e-21)
(1.37089 -0.082013 4.22881e-21)
(1.38232 -0.0654258 -6.69911e-22)
(1.38097 -0.0701083 -5.74736e-21)
(1.384 -0.0521747 3.0081e-21)
(1.38795 -0.0568585 2.91589e-21)
(1.3829 -0.038661 9.63093e-22)
(1.39157 -0.0429661 -3.80966e-21)
(1.37907 -0.0255161 4.15935e-23)
(1.39189 -0.0291458 1.9957e-21)
(1.37233 -0.0133174 2.88276e-21)
(1.38877 -0.0157014 -2.4965e-22)
(1.36226 -0.00263485 7.33646e-21)
(1.38212 -0.00299168 2.92233e-21)
(1.34786 0.0054682 4.89481e-21)
(1.37196 0.00792767 3.93562e-21)
(1.32547 0.00734178 3.02088e-21)
(1.35813 0.0149366 7.8466e-21)
(1.34438 0.00572745 -1.01231e-20)
(0.269251 0.0192785 8.43982e-21)
(0.168924 0.0117237 -1.00744e-19)
(0.42578 0.0313746 -7.14881e-21)
(0.295739 0.0386162 -1.07907e-19)
(0.580705 0.0254265 9.62991e-22)
(0.435793 0.0460479 3.41974e-20)
(0.718835 0.00955299 -1.44102e-20)
(0.568515 0.0395981 -1.41732e-20)
(0.838623 -0.0104931 0)
(0.687346 0.0251709 -4.7805e-20)
(0.942658 -0.0313566 0)
(0.793118 0.00681512 0)
(1.03417 -0.0511484 -1.31173e-22)
(0.887507 -0.0127342 3.15121e-20)
(1.11396 -0.0684626 1.83127e-20)
(0.973288 -0.0320104 -1.3288e-22)
(1.18107 -0.0821279 3.19758e-20)
(1.05054 -0.0487022 -2.73389e-21)
(1.23528 -0.09118 -8.75413e-21)
(1.1192 -0.0617472 1.31902e-20)
(1.27821 -0.0953882 -1.46502e-20)
(1.17929 -0.0711327 -3.8778e-20)
(1.31211 -0.0951972 -4.19213e-21)
(1.23093 -0.0768425 1.01594e-20)
(1.33853 -0.0911676 -1.32285e-21)
(1.27475 -0.0786527 -1.45809e-20)
(1.35897 -0.0838766 2.32328e-20)
(1.31054 -0.0761894 1.37951e-20)
(1.37484 -0.0736928 5.13763e-21)
(1.33958 -0.06997 9.40108e-21)
(1.38696 -0.0612866 -4.91187e-21)
(1.36256 -0.0605831 -5.92661e-21)
(1.3956 -0.0476369 -4.11344e-21)
(1.38006 -0.0488294 9.3358e-21)
(1.40053 -0.0335395 -2.61563e-21)
(1.39252 -0.0352317 -5.12507e-21)
(1.40154 -0.0194328 2.05574e-21)
(1.40039 -0.0204252 -4.43115e-21)
(1.39873 -0.00556309 6.8829e-22)
(1.40392 -0.0052591 4.64717e-21)
(1.39215 0.00738618 -8.55515e-22)
(1.40299 0.0093488 1.99177e-21)
(1.38143 0.0182151 6.48884e-21)
(1.39804 0.0219883 -3.46039e-21)
(1.36415 0.0237527 1.0345e-19)
(1.38751 0.0325407 1.06376e-20)
(1.38256 0.0278004 -1.19692e-20)
(0.192865 0.0309661 -2.12186e-19)
(0.122078 0.0204728 -1.49988e-19)
(0.301804 0.0535959 -6.79526e-20)
(0.20554 0.0523201 2.3265e-21)
(0.420073 0.0601801 1.88709e-20)
(0.305672 0.0694669 3.73953e-20)
(0.53424 0.0549796 -4.70055e-20)
(0.408493 0.0732528 -6.15061e-20)
(0.639737 0.042372 -4.85313e-20)
(0.506511 0.0674619 -3.24473e-21)
(0.7366 0.0255824 3.10734e-20)
(0.598049 0.0553545 0)
(0.826045 0.00699802 3.19169e-20)
(0.683538 0.0395182 -1.2566e-20)
(0.909383 -0.0114388 -2.1202e-20)
(0.764418 0.0221042 1.12477e-20)
(0.98784 -0.0285435 -2.16967e-20)
(0.841203 0.00465304 -2.56116e-20)
(1.06178 -0.043338 -1.54444e-20)
(0.915029 -0.0119306 0)
(1.13023 -0.0549108 -1.57604e-20)
(0.98612 -0.0262707 2.88632e-21)
(1.19184 -0.0624141 0)
(1.05373 -0.037034 0)
(1.24542 -0.0652619 0)
(1.11756 -0.0432986 -1.37109e-21)
(1.29044 -0.0633983 0)
(1.17648 -0.0450346 -1.80655e-21)
(1.3272 -0.0572408 0)
(1.22959 -0.0427225 -3.16934e-20)
(1.35606 -0.0476277 4.30542e-21)
(1.27611 -0.0365987 5.02466e-20)
(1.37769 -0.0354026 4.36976e-21)
(1.31514 -0.0271596 -1.38326e-20)
(1.39318 -0.021133 -3.01545e-21)
(1.3464 -0.0151485 -8.65312e-21)
(1.40332 -0.00561804 1.50555e-21)
(1.3701 -0.001094 -3.87334e-21)
(1.40847 0.00975662 6.87918e-21)
(1.38673 0.0137393 5.17491e-21)
(1.40873 0.0238604 3.8078e-22)
(1.39637 0.0288207 -8.21315e-21)
(1.40403 0.0359508 4.07279e-24)
(1.40065 0.0425806 9.79195e-21)
(1.39361 0.0452063 1.34724e-21)
(1.3969 0.0565982 5.53353e-22)
(1.40378 0.0577086 -8.80284e-22)
(0.133144 0.0416017 5.89679e-20)
(0.0817686 0.0311055 -2.45711e-20)
(0.206726 0.0685749 1.07823e-19)
(0.13551 0.0637595 2.08093e-20)
(0.29154 0.0827049 -4.11426e-20)
(0.203843 0.0853261 -7.13441e-23)
(0.378417 0.0856558 -1.65557e-20)
(0.2782 0.0953529 -6.38916e-20)
(0.462766 0.0801846 4.74713e-20)
(0.352829 0.0958886 1.82925e-20)
(0.543336 0.0689395 -4.56331e-20)
(0.425375 0.0892881 -8.73124e-20)
(0.620464 0.0543056 -3.55279e-20)
(0.495454 0.0777603 -2.74361e-20)
(0.695033 0.0379633 8.46766e-21)
(0.563734 0.0632878 3.78871e-20)
(0.767792 0.0212792 -2.92989e-21)
(0.630747 0.0473588 -2.89764e-21)
(0.839194 0.00571738 1.51682e-20)
(0.697381 0.031412 -2.28089e-20)
(0.909542 -0.00767767 1.54786e-20)
(0.763925 0.0167613 1.35984e-20)
(0.978968 -0.0180161 -1.35839e-21)
(0.830564 0.00431663 4.45362e-22)
(1.04746 -0.0245854 -2.09572e-21)
(0.897319 -0.00507031 4.36143e-20)
(1.11387 -0.0270297 -3.23054e-20)
(0.964245 -0.0107774 1.35126e-20)
(1.17631 -0.0252454 1.78781e-20)
(1.03023 -0.0120491 -2.02964e-20)
(1.23294 -0.0192986 3.22137e-20)
(1.094 -0.00860532 1.58402e-20)
(1.28199 -0.00957649 -2.68931e-20)
(1.15412 -0.000626281 -1.81709e-20)
(1.3222 0.00316468 -1.3277e-20)
(1.20896 0.0111953 -3.79323e-20)
(1.35312 0.0177745 -4.6263e-21)
(1.25686 0.0258497 2.26595e-20)
(1.37497 0.033227 -6.44545e-21)
(1.29668 0.0419953 0)
(1.38847 0.048628 2.66387e-21)
(1.327 0.0589409 -6.48705e-21)
(1.39492 0.0634977 6.73584e-21)
(1.3495 0.0743768 1.12972e-20)
(1.3953 0.0767876 -1.66592e-21)
(1.35933 0.090335 -2.56343e-21)
(1.38297 0.0966062 1.83078e-22)
(0.0831693 0.0527848 -6.4047e-20)
(0.0455254 0.0430667 -3.64286e-20)
(0.130889 0.0807358 -8.62125e-20)
(0.0779347 0.0750364 9.34472e-21)
(0.188798 0.0982683 -2.21005e-20)
(0.122045 0.0979374 -1.89402e-20)
(0.250972 0.105814 -3.09014e-20)
(0.172618 0.110854 5.99774e-20)
(0.313914 0.105065 -1.15625e-19)
(0.225646 0.114912 2.42549e-20)
(0.376157 0.0980084 -6.94897e-20)
(0.279101 0.111755 -4.33071e-20)
(0.437487 0.0865982 4.68369e-20)
(0.332358 0.103166 3.70506e-20)
(0.498402 0.0724917 2.84502e-20)
(0.385594 0.0908574 -5.69048e-21)
(0.55947 0.0572495 -2.25551e-20)
(0.439263 0.0763086 1.31962e-20)
(0.621255 0.0421988 -2.47585e-20)
(0.494033 0.0610044 -2.53009e-20)
(0.684199 0.028459 -1.01245e-21)
(0.55032 0.0462231 -2.34738e-21)
(0.748455 0.0171138 4.46766e-20)
(0.608552 0.0330902 2.13383e-21)
(0.813966 0.00896786 5.87107e-20)
(0.668789 0.0226039 2.88848e-20)
(0.880513 0.00468033 2.66177e-20)
(0.731004 0.0156385 -1.13166e-21)
(0.94761 0.00474482 -2.03722e-20)
(0.794954 0.0128582 1.33276e-20)
(1.01444 0.0093129 -3.50627e-20)
(0.860085 0.0145467 -3.47988e-20)
(1.07976 0.0182291 -2.04609e-20)
(0.925559 0.0207981 6.12407e-21)
(1.14174 0.0309807 6.43294e-21)
(0.990336 0.0315377 -8.78705e-21)
(1.19815 0.0467137 2.7437e-20)
(1.0527 0.0464763 1.74458e-20)
(1.24675 0.0643818 0)
(1.11092 0.0647984 -1.53382e-20)
(1.28582 0.0826385 -2.40399e-21)
(1.16245 0.0855891 1.13702e-20)
(1.31399 0.0995171 -1.95295e-21)
(1.20762 0.106398 -2.41893e-21)
(1.33356 0.116458 -1.03414e-19)
(1.23816 0.126763 -6.00078e-21)
(1.28255 0.139464 1.59496e-21)
(0.0397193 0.0647049 3.49813e-20)
(0.0125149 0.055801 -5.16433e-22)
(0.0679854 0.0922129 7.55222e-20)
(0.0288461 0.0867022 9.49569e-20)
(0.104745 0.110736 6.0703e-20)
(0.0543447 0.109493 -2.73514e-20)
(0.146187 0.12027 1.14073e-19)
(0.0856952 0.123311 7.82497e-20)
(0.189818 0.121922 9.58213e-20)
(0.120189 0.12888 6.53177e-20)
(0.234391 0.11719 6.22013e-20)
(0.15627 0.127413 3.13941e-20)
(0.279607 0.107659 -1.52596e-20)
(0.193349 0.120307 1.82094e-20)
(0.325725 0.0948446 -2.11697e-20)
(0.231464 0.109009 -5.13653e-20)
(0.373169 0.0802157 1.0848e-20)
(0.270994 0.0949279 2.87591e-20)
(0.422499 0.0651477 -2.89555e-21)
(0.312454 0.0794769 1.03728e-20)
(0.474163 0.0509191 9.51773e-22)
(0.356339 0.0639785 -4.75098e-22)
(0.528437 0.0386287 -1.38921e-20)
(0.403095 0.0496817 3.13092e-20)
(0.585423 0.0292959 -3.00377e-20)
(0.45298 0.0377096 -2.59316e-20)
(0.64506 0.0237966 -1.44686e-20)
(0.506053 0.0290939 -2.25772e-20)
(0.707094 0.022642 0)
(0.56219 0.0245898 0)
(0.770994 0.0261122 6.07764e-21)
(0.621126 0.0247092 0)
(0.835978 0.0343385 1.64083e-20)
(0.682298 0.0298368 -6.28301e-22)
(0.90105 0.0472258 1.32702e-21)
(0.744949 0.0401299 1.03146e-20)
(0.964934 0.0643894 -2.44195e-20)
(0.808068 0.0554418 -9.12269e-21)
(1.026 0.0850609 -5.00155e-21)
(0.870479 0.075288 -1.53382e-20)
(1.08234 0.108169 1.14404e-20)
(0.930347 0.0989324 1.52651e-20)
(1.13145 0.131437 -2.43878e-22)
(0.987227 0.12491 0)
(1.17209 0.15518 5.56371e-20)
(1.03497 0.151428 -2.45339e-22)
(1.09294 0.171367 1.96909e-21)
(0.00135229 0.0771447 5.71107e-20)
(-0.0174611 0.0688732 4.1667e-20)
(0.0145514 0.103771 -5.47054e-21)
(-0.0136228 0.0987603 1.0693e-20)
(0.0345972 0.122133 -1.15485e-20)
(-0.00264018 0.120891 -5.4978e-20)
(0.0589795 0.132171 2.97111e-20)
(0.013292 0.134636 3.21241e-20)
(0.085979 0.134711 1.21076e-21)
(0.0323275 0.140564 -1.19206e-21)
(0.11462 0.13092 -1.24142e-20)
(0.0533421 0.13966 -1.22438e-20)
(0.144651 0.122078 -1.77087e-20)
(0.0758451 0.133 2.05447e-20)
(0.176259 0.109531 -2.61061e-21)
(0.0998837 0.121795 1.80666e-20)
(0.20985 0.094646 2.79108e-20)
(0.125806 0.107324 -1.13417e-21)
(0.245938 0.0787791 1.24401e-20)
(0.154095 0.0909073 1.23117e-20)
(0.284988 0.0632365 2.93932e-20)
(0.185287 0.0738774 -1.28637e-20)
(0.32739 0.049248 1.99891e-20)
(0.219832 0.0575393 1.85895e-20)
(0.373372 0.0379477 -1.83049e-20)
(0.258096 0.0431361 -1.01131e-20)
(0.422984 0.0302857 -8.2969e-21)
(0.300278 0.0318332 -2.63422e-20)
(0.476076 0.0270202 0)
(0.346325 0.0245919 1.47042e-20)
(0.5323 0.0287493 -6.0145e-21)
(0.396086 0.0221724 -1.40818e-20)
(0.591123 0.0358741 -6.10439e-21)
(0.449207 0.0251735 -1.21808e-20)
(0.651811 0.04852 0)
(0.505143 0.033975 5.36729e-21)
(0.71342 0.0664835 0)
(0.563164 0.0486497 -9.04948e-21)
(0.774792 0.0892141 3.39376e-21)
(0.622373 0.0689536 8.73093e-21)
(0.834556 0.115901 3.43676e-21)
(0.681584 0.0943235 3.41567e-21)
(0.891032 0.144784 0)
(0.740039 0.123666 0)
(0.941925 0.172908 -1.27102e-22)
(0.795443 0.154355 0)
(0.855822 0.176838 -1.96629e-21)
(-0.0325007 0.0898316 -4.03804e-21)
(-0.0443288 0.0819532 -2.31333e-20)
(-0.0311284 0.115564 -3.74833e-20)
(-0.0502632 0.111036 -1.55729e-20)
(-0.0243268 0.133333 -1.27052e-20)
(-0.0505987 0.132397 -1.86243e-20)
(-0.0137858 0.14317 1.60645e-21)
(-0.0468593 0.145673 3.21094e-20)
(-0.000701268 0.145775 -1.46738e-20)
(-0.0403732 0.1514 1.20569e-22)
(0.0141889 0.142081 2.02587e-20)
(-0.0319134 0.150441 1.29835e-20)
(0.0307333 0.133115 5.58232e-20)
(-0.0218435 0.143574 2.05447e-20)
(0.04912 0.120034 1.94345e-20)
(-0.0100623 0.131814 1.62562e-20)
(0.069773 0.104075 -1.68829e-20)
(0.00378666 0.116258 -2.57887e-20)
(0.0932076 0.0865433 -1.27295e-20)
(0.0202189 0.0981261 0)
(0.119938 0.0687638 -2.32078e-20)
(0.0398053 0.0787195 5.77263e-22)
(0.150397 0.0520583 -1.11997e-20)
(0.0630678 0.0593823 -2.17046e-20)
(0.184886 0.0377051 -1.76865e-20)
(0.090413 0.0414783 3.09667e-20)
(0.223543 0.0268495 -2.5974e-21)
(0.122078 0.0263345 -1.65242e-20)
(0.266309 0.0204467 1.19189e-21)
(0.158071 0.0151166 1.47042e-20)
(0.312987 0.0192639 -2.02625e-20)
(0.198275 0.00876608 -2.37684e-20)
(0.363223 0.0238771 -8.36368e-22)
(0.242471 0.00807889 1.46087e-20)
(0.41649 0.0346245 -3.58202e-21)
(0.290272 0.0136575 -1.94003e-21)
(0.472088 0.0515569 -8.24315e-22)
(0.341153 0.0257993 -9.04948e-21)
(0.529175 0.0743874 8.78692e-21)
(0.394482 0.0444196 7.00155e-21)
(0.586823 0.102325 0)
(0.449532 0.0689011 4.71908e-21)
(0.644035 0.133179 0)
(0.505705 0.0977203 -4.56125e-21)
(0.699031 0.160534 1.18369e-22)
(0.562527 0.127218 0)
(0.622391 0.146988 -4.09647e-23)
(-0.0619749 0.102504 -3.48258e-20)
(-0.0679083 0.094769 -5.92668e-21)
(-0.0697882 0.127509 3.23122e-21)
(-0.0813229 0.123295 1.53402e-20)
(-0.0732672 0.144612 2.5101e-20)
(-0.0902309 0.143955 2.72665e-20)
(-0.0736341 0.153951 3.09868e-20)
(-0.095787 0.156681 -2.13465e-23)
(-0.0717642 0.156232 2.75824e-20)
(-0.0989639 0.162013 -2.93423e-23)
(-0.0681267 0.152196 1.31642e-20)
(-0.100338 0.160675 -3.62845e-23)
(-0.0628104 0.142601 -1.8836e-20)
(-0.100093 0.153221 0)
(-0.0555599 0.128426 -2.82918e-20)
(-0.09808 0.14044 -1.90811e-20)
(-0.0459169 0.110763 -9.19272e-21)
(-0.0939263 0.123243 -9.0435e-21)
(-0.0333128 0.0908317 1.27003e-20)
(-0.0870164 0.102699 8.6985e-21)
(-0.0171734 0.0699525 1.6864e-21)
(-0.0767109 0.080048 4.78165e-21)
(0.00300184 0.0495091 1.89246e-20)
(-0.0624097 0.0566566 -1.13855e-20)
(0.0275745 0.0309094 3.04385e-20)
(-0.043632 0.0340036 2.43864e-20)
(0.0566141 0.0154918 -7.36064e-22)
(-0.0200782 0.0137438 4.84344e-21)
(0.0900696 0.00439796 -9.60972e-21)
(0.00817443 -0.00279494 4.80814e-21)
(0.127833 -0.00139401 8.64858e-21)
(0.0409403 -0.0145734 -1.87185e-21)
(0.16963 -0.00106493 1.37428e-20)
(0.0780078 -0.0205385 1.20018e-20)
(0.215067 0.00592523 -5.38145e-21)
(0.119004 -0.0199142 -5.34431e-21)
(0.26367 0.0197226 -1.71784e-21)
(0.163471 -0.0123082 6.03456e-21)
(0.314927 0.0398987 2.94834e-21)
(0.21089 0.00213525 -5.11661e-21)
(0.368337 0.0651001 2.5981e-22)
(0.260669 0.022517 4.71908e-21)
(0.423421 0.0921818 -4.58841e-21)
(0.312271 0.0466683 -4.56125e-21)
(0.479391 0.114379 -1.59099e-22)
(0.366186 0.0700097 -3.13968e-23)
(0.425903 0.0844181 -1.30895e-21)
(-0.087003 0.114904 4.37263e-20)
(-0.0880015 0.107076 2.87916e-20)
(-0.101632 0.139356 3.90152e-20)
(-0.106796 0.135262 2.06032e-20)
(-0.112698 0.155857 2.65974e-21)
(-0.121722 0.155367 1.83651e-20)
(-0.121104 0.164726 -3.09357e-20)
(-0.13376 0.167585 -1.63509e-20)
(-0.127552 0.166556 -2.75327e-20)
(-0.143625 0.172494 -1.45547e-20)
(-0.132315 0.161899 -1.3134e-20)
(-0.151782 0.170623 -1.29537e-20)
(-0.135384 0.151356 0)
(-0.158242 0.16235 0)
(-0.136466 0.135664 -1.48422e-22)
(-0.162743 0.148235 -2.96929e-21)
(-0.135035 0.115694 8.40951e-21)
(-0.164713 0.128917 -1.50213e-22)
(-0.130423 0.0925142 8.20661e-22)
(-0.163455 0.105266 6.19427e-21)
(-0.121972 0.0674032 -8.1316e-21)
(-0.15834 0.0784493 -5.77697e-22)
(-0.109112 0.0418109 -6.30925e-21)
(-0.148805 0.0498694 0)
(-0.091289 0.0173106 -8.99706e-22)
(-0.134488 0.0209729 1.16355e-21)
(-0.0686267 -0.004407 1.03879e-20)
(-0.114903 -0.00578718 7.51885e-22)
(-0.0411674 -0.0218743 1.24127e-20)
(-0.0902413 -0.0291488 -4.49074e-21)
(-0.00909675 -0.0339053 8.81051e-22)
(-0.0608537 -0.0478641 8.23929e-21)
(0.0271954 -0.0395492 -6.95961e-21)
(-0.0270104 -0.0605481 -3.61375e-21)
(0.0672458 -0.0382166 5.99263e-21)
(0.01083 -0.0662715 -5.74747e-22)
(0.110552 -0.0298264 2.5672e-21)
(0.0521488 -0.0645702 1.02787e-21)
(0.156556 -0.0150394 -3.64399e-21)
(0.096318 -0.0555463 -1.60457e-21)
(0.204636 0.00435209 0)
(0.142505 -0.040121 0)
(0.253964 0.0250517 -3.12098e-23)
(0.190075 -0.0203435 0)
(0.304109 0.0423401 1.04696e-22)
(0.240149 -0.00177644 2.2715e-21)
(0.297512 0.0097429 1.37061e-22)
(-0.107453 0.12677 5.86491e-21)
(-0.104447 0.118635 -1.66777e-22)
(-0.126622 0.150862 0)
(-0.126597 0.146637 3.20848e-22)
(-0.142608 0.166886 0)
(-0.145036 0.166322 -1.45711e-22)
(-0.15613 0.175307 0)
(-0.160666 0.17811 0)
(-0.167744 0.176648 0)
(-0.174041 0.182605 0)
(-0.177597 0.171262 0)
(-0.185426 0.180125 0)
(-0.185508 0.15946 -2.93114e-21)
(-0.194684 0.170803 0)
(-0.190921 0.141644 -3.00469e-21)
(-0.201429 0.154829 -5.69061e-23)
(-0.193101 0.118455 -2.47637e-21)
(-0.20504 0.13258 0)