/*--------------------------------*- C++ -*----------------------------------*\
  =========                 |
  \\      /  F ield         | OpenFOAM: The Open Source CFD Toolbox
   \\    /   O peration     | Website:  https://openfoam.org
    \\  /    A nd           | Version:  11
     \\/     M anipulation  |
\*---------------------------------------------------------------------------*/
FoamFile
{
    format      ascii;
    class       volScalarField;
    location    "1.9";
    object      k;
}
// * * * * * * * * * * * * * * * * * * * * * * * * * * * * * * * * * * * * * //

dimensions      [0 2 -2 0 0 0 0];

internalField   nonuniform List<scalar> 
2880
(
0.00688982
0.0348121
0.0764888
0.123433
0.152292
0.170676
0.0223018
0.0684246
0.111276
0.157437
0.207651
0.28737
0.0319603
0.0888206
0.133729
0.181027
0.234189
0.300369
0.0396743
0.102584
0.149171
0.196965
0.247489
0.297944
0.0461642
0.112884
0.160584
0.207985
0.254485
0.291936
0.0515683
0.120905
0.169271
0.215701
0.257995
0.285781
0.0559938
0.127207
0.175934
0.221149
0.259557
0.280429
0.0595251
0.132086
0.181003
0.225035
0.260099
0.276123
0.0622273
0.135717
0.184756
0.227787
0.260246
0.272977
0.0641502
0.138205
0.18738
0.229698
0.26039
0.271068
0.0653377
0.139615
0.188993
0.230962
0.26076
0.270429
0.0658475
0.139976
0.189665
0.231691
0.261466
0.271085
0.0658155
0.139287
0.189416
0.231913
0.262533
0.273057
0.0651558
0.137563
0.188222
0.231611
0.26392
0.276376
0.0638223
0.134795
0.186018
0.230673
0.265487
0.281011
0.0617669
0.130955
0.182694
0.228917
0.266985
0.286908
0.0589377
0.125998
0.178104
0.226058
0.268096
0.293927
0.0552719
0.119867
0.172065
0.221707
0.268369
0.30176
0.0506967
0.112475
0.164341
0.215339
0.266986
0.309996
0.0451353
0.103676
0.154598
0.206231
0.262703
0.31793
0.0385214
0.0931626
0.142273
0.193343
0.253572
0.324184
0.0308265
0.0801555
0.126222
0.175041
0.236317
0.324942
0.0214947
0.0620677
0.103424
0.148305
0.204719
0.307533
0.00605385
0.0286987
0.0636983
0.106973
0.153707
0.184481
0.32942
0.268313
0.178951
0.116593
0.0765357
0.0531045
0.0391563
0.0301645
0.0238664
0.0191831
0.0155878
0.0127958
0.0106222
0.00893084
0.00761732
0.00660167
0.00582256
0.00523234
0.00479229
0.00446837
0.00422984
0.00405303
0.00392267
0.00383041
0.341123
0.262427
0.175495
0.114121
0.075024
0.0522109
0.0385822
0.0297233
0.0234682
0.0187909
0.0151932
0.0124032
0.0102393
0.00856514
0.00727554
0.0062897
0.00554561
0.00499462
0.00459615
0.00431381
0.00411485
0.00397416
0.00387515
0.00380675
0.327778
0.251584
0.170073
0.111025
0.0733818
0.0513387
0.0380646
0.029345
0.0231333
0.0184617
0.0148613
0.0120724
0.00991646
0.00825714
0.0069885
0.00602909
0.00531629
0.00480023
0.00443822
0.00419135
0.004025
0.00391304
0.00383849
0.00378846
0.311246
0.240139
0.164027
0.107756
0.071757
0.0505343
0.0376189
0.0290359
0.0228651
0.0181979
0.0145937
0.0118043
0.0096539
0.00800618
0.00675467
0.00581749
0.00513141
0.00464527
0.00431413
0.00409656
0.00395635
0.0038667
0.00381061
0.00377468
0.295815
0.229466
0.158161
0.104656
0.0702776
0.0498429
0.0372628
0.0288049
0.0226687
0.0180027
0.0143928
0.0116005
0.00945236
0.00781216
0.00657317
0.00565319
0.00498846
0.00452649
0.0042201
0.00402563
0.00390566
0.00383289
0.00379012
0.00376486
0.282777
0.220231
0.152946
0.101949
0.0690344
0.0493006
0.0370126
0.0286611
0.0225501
0.0178805
0.0142618
0.011463
0.00931281
0.00767522
0.00644335
0.00553482
0.00488531
0.00444106
0.00415287
0.00397521
0.00386984
0.00380923
0.00377606
0.0037584
0.272307
0.212675
0.148634
0.0997665
0.0680869
0.0489343
0.0368824
0.028613
0.0225156
0.0178362
0.0142037
0.0113935
0.00923611
0.00759543
0.00636457
0.00546099
0.00481992
0.00438643
0.00410964
0.00394264
0.0038466
0.00379395
0.00376732
0.00375445
0.264328
0.206874
0.145354
0.0981833
0.0674729
0.0487632
0.0368825
0.0286609
0.0225632
0.0178685
0.014219
0.0113933
0.00922294
0.00757284
0.00633631
0.00543065
0.0047907
0.00436064
0.00408839
0.00392599
0.00383415
0.00378598
0.00376278
0.00375242
0.258682
0.202832
0.143172
0.0972438
0.0672174
0.0487982
0.0370074
0.0288027
0.0226906
0.0179727
0.0143
0.0114536
0.009266
0.00760201
0.00635473
0.00544118
0.00479588
0.00436243
0.00408809
0.00392457
0.00383244
0.00378444
0.00376159
0.00375186
0.255228
0.200538
0.142126
0.096977
0.0673304
0.0490359
0.0372672
0.0290466
0.0229049
0.0181551
0.0144532
0.0115814
0.00937143
0.00768802
0.00642376
0.00549531
0.00483677
0.00439199
0.00410853
0.003938
0.00384066
0.00378869
0.00376335
0.00375219
0.25388
0.199987
0.142242
0.0973877
0.0678174
0.0494979
0.0376807
0.0294124
0.023226
0.0184362
0.0146985
0.0117937
0.00955279
0.00783985
0.00654815
0.00559481
0.00491416
0.00445007
0.00415035
0.00396681
0.00385951
0.00379951
0.00376836
0.0037534
0.254567
0.201198
0.143564
0.098539
0.0687379
0.0502243
0.0382706
0.0299095
0.0236563
0.0188136
0.0150298
0.012082
0.00980082
0.00805065
0.00672455
0.00573924
0.00502892
0.00453783
0.00421465
0.00401183
0.00388932
0.00381757
0.0037772
0.00375579
0.25731
0.20421
0.14614
0.100462
0.0701049
0.0512139
0.0390314
0.0305325
0.0241898
0.0192809
0.0154415
0.0124437
0.0101158
0.00832197
0.00695468
0.00593033
0.00518295
0.00465736
0.00430347
0.00407483
0.00393149
0.00384333
0.00379048
0.00375995
0.26214
0.20909
0.150036
0.103199
0.0719363
0.0524728
0.0399641
0.0312796
0.0248244
0.0198369
0.0159339
0.0128795
0.010499
0.00865527
0.00724047
0.00617039
0.00537891
0.00481154
0.00441971
0.00415846
0.00398827
0.00387861
0.00380921
0.0037663
0.26913
0.215929
0.155332
0.106805
0.0742646
0.054017
0.0410749
0.0321529
0.0255601
0.0204812
0.0165067
0.0133896
0.0109509
0.00905197
0.00758389
0.00646195
0.00561987
0.00500382
0.00456692
0.00426602
0.00406242
0.00392553
0.00383486
0.00377558
0.27837
0.224838
0.162118
0.111345
0.0771261
0.0558628
0.0423697
0.0331529
0.0263955
0.0212119
0.0171583
0.0139732
0.0114719
0.00951304
0.00798675
0.0068076
0.00590908
0.00523801
0.00474915
0.0044014
0.00415733
0.00398673
0.00386924
0.00378875
0.28995
0.235931
0.170484
0.116882
0.0805569
0.0580261
0.0438529
0.0342787
0.0273274
0.0220254
0.0178858
0.0146284
0.012061
0.0100387
0.00845036
0.00720962
0.00624973
0.00551801
0.00497077
0.00456901
0.00427694
0.00406536
0.00391453
0.00380685
0.303958
0.249313
0.1805
0.123469
0.084587
0.060519
0.0455261
0.0355271
0.0283508
0.0229164
0.0186845
0.0153518
0.012716
0.0106282
0.00897519
0.00766969
0.00664458
0.00584754
0.00523619
0.00477354
0.0044257
0.00416507
0.00397324
0.00383111
0.320459
0.265041
0.192178
0.131121
0.0892298
0.0633458
0.0473868
0.0368923
0.0294581
0.0238774
0.0195479
0.0161381
0.0134333
0.0112793
0.00956048
0.00818843
0.00709554
0.00622966
0.00554943
0.0050196
0.00460828
0.00428998
0.00404821
0.00386287
0.339379
0.283039
0.205404
0.139783
0.0944639
0.0664955
0.0494252
0.0383651
0.0306397
0.0248988
0.0204675
0.0169802
0.0142073
0.0119882
0.010204
0.00876514
0.00760338
0.00666652
0.00591391
0.0053117
0.00482973
0.00444461
0.00414186
0.00390308
0.360073
0.302997
0.219824
0.149265
0.100206
0.0699312
0.0516204
0.0399304
0.0318827
0.0259692
0.0214331
0.0178695
0.0150311
0.0127494
0.010902
0.0093978
0.00816767
0.00715923
0.00633214
0.00565343
0.00509417
0.00463282
0.0042576
0.00395299
0.380689
0.323578
0.234625
0.159157
0.106275
0.0735767
0.0539358
0.0415658
0.0331715
0.0270758
0.0224337
0.0187963
0.0158963
0.0135562
0.0116496
0.0100831
0.0087868
0.00770775
0.00680552
0.00604743
0.00540515
0.00485858
0.00439895
0.00401412
0.395034
0.342688
0.248389
0.168741
0.112351
0.0773012
0.0563147
0.0432417
0.0344872
0.0282045
0.0234572
0.01975
0.0167938
0.0144011
0.0124405
0.0108165
0.00945775
0.0083106
0.00733406
0.00649514
0.00576541
0.00512555
0.0045696
0.00408817
0.368107
0.353744
0.258864
0.176967
0.117979
0.0809217
0.0586823
0.0449224
0.035809
0.0293404
0.0244914
0.0207199
0.0177141
0.0152755
0.0132676
0.0115921
0.0101761
0.00896485
0.00791633
0.00699671
0.00617671
0.00543678
0.00477298
0.00417679
0.00964107
0.0139912
0.015583
0.0176408
0.0239591
0.0802534
0.0266579
0.0353092
0.0359643
0.0387475
0.0540666
0.121652
0.0347681
0.0447084
0.0483487
0.0542981
0.0784258
0.156552
0.0401058
0.0526033
0.0593305
0.0685923
0.0992139
0.18014
0.0439551
0.0601863
0.0698539
0.0820582
0.11709
0.195815
0.0469833
0.0675286
0.0798913
0.0947221
0.132418
0.205362
0.0495083
0.0746493
0.0893857
0.106507
0.145099
0.210627
0.0516559
0.0814655
0.0983034
0.117384
0.155338
0.213183
0.0534791
0.0878639
0.106595
0.127256
0.163596
0.21406
0.0550069
0.0937535
0.114207
0.136093
0.170343
0.213964
0.0562621
0.0990424
0.121102
0.143959
0.175951
0.213395
0.0572683
0.103633
0.127257
0.15094
0.180742
0.212732
0.058056
0.107414
0.132649
0.157126
0.185024
0.212299
0.0583347
0.110422
0.137256
0.162592
0.189043
0.212472
0.0581249
0.112646
0.141042
0.167385
0.192924
0.213368
0.0572802
0.114008
0.143947
0.171507
0.196766
0.215291
0.0557778
0.114305
0.14587
0.174875
0.200583
0.218684
0.0535595
0.113451
0.14655
0.177271
0.204161
0.223555
0.0505186
0.110999
0.145897
0.178245
0.206963
0.229295
0.0464306
0.10646
0.143355
0.177186
0.208062
0.234486
0.0410278
0.0990236
0.138199
0.172954
0.205834
0.236668
0.0339156
0.0872304
0.12917
0.163711
0.197024
0.232148
0.0241008
0.0681168
0.113823
0.146344
0.175653
0.211175
0.0100578
0.0439862
0.0913601
0.119015
0.132575
0.128413
0.32427
0.348626
0.262907
0.182712
0.122685
0.0842449
0.0609596
0.0465724
0.0371176
0.0304703
0.0255252
0.0216959
0.0186479
0.0161711
0.0141233
0.0124033
0.0109363
0.00966616
0.00854948
0.00755097
0.00663961
0.00579443
0.005012
0.00428144
0.293403
0.334859
0.261265
0.185594
0.126207
0.0871354
0.0630857
0.0481635
0.0383978
0.0315833
0.0265496
0.0226697
0.0195868
0.0170795
0.0149997
0.0132427
0.0117319
0.0104091
0.00922943
0.00815544
0.00715352
0.00619972
0.0052889
0.0044033
0.273994
0.315324
0.256972
0.185787
0.128538
0.0895511
0.0650323
0.0496811
0.039641
0.0326732
0.0275584
0.0236346
0.020524
0.0179938
0.0158896
0.0141034
0.0125561
0.0111877
0.00995127
0.00880668
0.00771682
0.00665299
0.0056053
0.00454309
0.261977
0.296874
0.250541
0.184545
0.12995
0.0915422
0.0668048
0.0511246
0.0408459
0.0337378
0.0285486
0.0245867
0.0214549
0.0189087
0.0167876
0.0149796
0.0134033
0.0119966
0.0107102
0.00950092
0.00832735
0.00715404
0.00596238
0.00470113
0.254069
0.280404
0.24197
0.18234
0.130687
0.093189
0.0684287
0.0525039
0.0420168
0.0347785
0.0295198
0.0255244
0.0223768
0.0198213
0.0176903
0.015868
0.0142702
0.0128325
0.0115031
0.0102357
0.00898365
0.00770306
0.00636168
0.0048775
0.248149
0.265903
0.233216
0.179763
0.130946
0.0945703
0.0699363
0.053834
0.0431612
0.035799
0.0304733
0.0264478
0.0232896
0.0207312
0.0185981
0.0167696
0.0151585
0.0136977
0.0123326
0.0110134
0.00968847
0.00830357
0.00680728
0.00507293
0.243109
0.253158
0.224676
0.176799
0.130885
0.0957623
0.0713607
0.0551312
0.044288
0.0368039
0.0314113
0.0273579
0.0241941
0.0216405
0.0195146
0.0176907
0.0160774
0.0146043
0.0132133
0.0118505
0.0104583
0.00897184
0.00731417
0.00529254
0.238458
0.241958
0.216596
0.173564
0.130642
0.0968325
0.0727343
0.0564126
0.0454057
0.037797
0.032335
0.0282546
0.0250902
0.0225506
0.020445
0.0186417
0.0170446
0.015579
0.0141818
0.0127935
0.0113489
0.00976989
0.00794521
0.00557483
0.234027
0.232304
0.20903
0.170178
0.130261
0.0978267
0.0740889
0.0576952
0.0465227
0.0387818
0.0332441
0.0291348
0.0259741
0.0234587
0.0213897
0.0196296
0.0180782
0.0166569
0.0152981
0.0139373
0.012503
0.0109054
0.00899602
0.00630457
0.229838
0.224164
0.202054
0.166708
0.129784
0.0987732
0.0754438
0.0589949
0.0476504
0.0397625
0.0341363
0.0299918
0.0268353
0.0243523
0.022336
0.020645
0.0191772
0.0178549
0.016615
0.0154045
0.014184
0.0129548
0.0118439
0.011209
0.22604
0.217464
0.195784
0.163451
0.129285
0.0996963
0.0768197
0.0603307
0.0488018
0.0407448
0.0350103
0.030817
0.027659
0.0252103
0.0232575
0.0216565
0.020308
0.0191419
0.0181105
0.0171861
0.0163638
0.0156802
0.0152571
0.015271
0.222814
0.212126
0.190388
0.160509
0.128825
0.100629
0.0782396
0.0617244
0.049995
0.04174
0.0358689
0.0316054
0.0284325
0.0260132
0.024127
0.0226285
0.0214216
0.020445
0.0196642
0.0190662
0.0186552
0.0184541
0.0185103
0.0188145
0.220383
0.208133
0.186039
0.158008
0.12849
0.101607
0.0797303
0.0632029
0.0512555
0.0427678
0.0367241
0.0323609
0.0291526
0.026751
0.0249286
0.0235373
0.0224828
0.0217083
0.0211837
0.0208958
0.0208378
0.0209954
0.0213648
0.0218476
0.219111
0.205642
0.182881
0.156092
0.128338
0.10268
0.0813248
0.0647992
0.0526175
0.0438588
0.0375992
0.0330984
0.0298262
0.0274235
0.0256538
0.0243646
0.0234599
0.0228819
0.0225972
0.0225844
0.0228058
0.023251
0.023851
0.0244666
0.219424
0.205246
0.181184
0.154946
0.128452
0.103905
0.0830619
0.0665527
0.054124
0.0450548
0.0385297
0.033845
0.0304713
0.028039
0.0263011
0.0250972
0.0243257
0.0239235
0.0238505
0.0240551
0.0245282
0.0252033
0.0259951
0.0267341
0.221219
0.206415
0.181245
0.154861
0.129106
0.1054
0.0850085
0.0685164
0.0558293
0.0464103
0.0395651
0.0346413
0.031118
0.0286168
0.0268781
0.0257306
0.0250633
0.0248054
0.0248945
0.0252877
0.0259667
0.0268375
0.0278024
0.0286669
0.225517
0.210367
0.183414
0.156209
0.130572
0.107344
0.0872693
0.0707644
0.0578024
0.0479947
0.0407705
0.0355433
0.0318109
0.0291893
0.0274052
0.0262733
0.0256706
0.0255164
0.0257154
0.0262618
0.0271034
0.0281405
0.0292644
0.0302594
0.232861
0.217866
0.18865
0.159623
0.133286
0.11002
0.0900164
0.0734103
0.0601365
0.0498965
0.0422305
0.0366267
0.0326133
0.0298064
0.0279195
0.0267508
0.0261626
0.0260631
0.0263235
0.0269724
0.0279342
0.0291049
0.0303701
0.0314986
0.24261
0.228774
0.197537
0.165862
0.137886
0.113877
0.0935402
0.076642
0.0629699
0.052236
0.0440566
0.037993
0.0336131
0.0305412
0.0284802
0.0272105
0.0265772
0.0264757
0.0267472
0.027438
0.028471
0.0297345
0.0311143
0.0323733
0.253197
0.241697
0.209959
0.175412
0.145072
0.119548
0.0983073
0.0807793
0.0665288
0.0551919
0.046405
0.0397823
0.0349339
0.0314996
0.0291763
0.0277274
0.026979
0.0268106
0.0270414
0.0277026
0.0287487
0.0300535
0.0315082
0.0328841
0.261809
0.253604
0.223637
0.187479
0.155001
0.127579
0.104906
0.086309
0.0711834
0.0590506
0.0495119
0.0421991
0.0367542
0.0328359
0.0301402
0.0284152
0.0274664
0.0271541
0.0272933
0.0278447
0.0288354
0.0301175
0.0315922
0.033056
0.264132
0.259267
0.234009
0.199215
0.16638
0.137741
0.11365
0.0937268
0.0774267
0.0642411
0.0537404
0.0455541
0.0393422
0.0347813
0.0315702
0.0294441
0.0281874
0.0276336
0.0276325
0.0279961
0.028841
0.0300275
0.0314529
0.0329601
0.254725
0.253573
0.234977
0.205964
0.176123
0.148333
0.123879
0.103024
0.0855817
0.0712123
0.0595585
0.0502885
0.0430953
0.0376844
0.0337675
0.0310741
0.0293681
0.0284575
0.0281979
0.0283552
0.0289317
0.0299417
0.0312344
0.0327196
0.217382
0.230798
0.224173
0.204149
0.180373
0.156426
0.133667
0.113161
0.0952769
0.0800341
0.0672948
0.0568615
0.048519
0.0420409
0.0371884
0.0337116
0.0313669
0.0299402
0.0292581
0.0291642
0.0294102
0.0301048
0.0311869
0.0325702
0.00384542
0.00839805
0.016153
0.0243724
0.0317632
0.0497006
0.0158572
0.0237522
0.0348595
0.0439598
0.0518225
0.0640595
0.0197777
0.0312035
0.0442438
0.0544322
0.0631705
0.0735852
0.0218506
0.0362329
0.0506564
0.0617436
0.0711799
0.0809452
0.0234196
0.040262
0.0557266
0.0675261
0.0774951
0.0869945
0.0244474
0.04375
0.0599852
0.0723436
0.0827326
0.0921602
0.0248935
0.046905
0.0636387
0.0764372
0.0871712
0.0966301
0.0250936
0.0497824
0.0667628
0.0799249
0.0909609
0.100509
0.0258782
0.0522049
0.0693786
0.0828727
0.0942004
0.103888
0.0266861
0.0541456
0.0714984
0.085326
0.0969671
0.106861
0.0273657
0.0555909
0.0731343
0.0873198
0.0993281
0.109527
0.0278473
0.0565397
0.0742963
0.0888808
0.101341
0.111989
0.0280634
0.0569986
0.0749871
0.0900238
0.103051
0.114339
0.027992
0.0569629
0.0751937
0.0907471
0.104483
0.116654
0.0276331
0.0564175
0.0749026
0.091028
0.105636
0.118985
0.0270079
0.0553339
0.074067
0.0908152
0.106474
0.121346
0.0261698
0.0536685
0.0726227
0.0900218
0.10691
0.123706
0.0252735
0.0513543
0.0704759
0.0885141
0.106797
0.125968
0.0249483
0.0482892
0.0674943
0.0860956
0.105898
0.127937
0.0239855
0.0445663
0.0634868
0.0824778
0.103851
0.129281
0.0223978
0.0399352
0.0581304
0.0772137
0.10008
0.129455
0.0202498
0.0338912
0.0507829
0.0695077
0.0935993
0.127625
0.0161968
0.024993
0.0397242
0.0574999
0.0823897
0.122416
0.00385184
0.00852065
0.0190203
0.0354303
0.0618368
0.111734
0.146717
0.188143
0.198187
0.192732
0.177777
0.159608
0.140793
0.12245
0.105445
0.0902028
0.0768931
0.0655452
0.056106
0.0484657
0.0424879
0.0379986
0.0347903
0.0326479
0.0313933
0.0308415
0.0308072
0.0310669
0.0317601
0.0329321
0.108616
0.147595
0.16719
0.171758
0.168183
0.158032
0.144671
0.13025
0.115749
0.101836
0.0889359
0.0773187
0.0671387
0.0584413
0.0513333
0.0457465
0.0415093
0.0384394
0.0363356
0.0350464
0.0344139
0.0343078
0.0345065
0.0350574
0.0968166
0.123208
0.142755
0.152974
0.155705
0.153672
0.147404
0.138466
0.128336
0.117702
0.107081
0.0968247
0.0871995
0.0784886
0.0708351
0.0642907
0.0588665
0.0545094
0.0511166
0.0485658
0.0467642
0.0455008
0.0448233
0.0444547
0.0959243
0.114137
0.129995
0.141584
0.148579
0.151777
0.151605
0.149588
0.145466
0.140375
0.134786
0.129032
0.123296
0.11769
0.112262
0.107164
0.102512
0.0983294
0.0945883
0.09118
0.088015
0.0848698
0.0821303
0.0787076
0.0988794
0.112872
0.12618
0.137567
0.146612
0.153417
0.158257
0.161579
0.16358
0.164729
0.165418
0.165901
0.166256
0.166477
0.166552
0.166453
0.166114
0.165415
0.16421
0.162453
0.160075
0.156885
0.153074
0.148434
0.10284
0.114811
0.1265
0.137395
0.147233
0.155978
0.163744
0.170661
0.176876
0.182616
0.188057
0.193263
0.198212
0.202831
0.207009
0.210596
0.213417
0.215321
0.216201
0.216129
0.215307
0.213642
0.210984
0.20825
0.106823
0.117776
0.128424
0.138658
0.148411
0.157683
0.166494
0.174902
0.182964
0.190725
0.198174
0.205243
0.211819
0.217762
0.222923
0.227173
0.230409
0.232557
0.233614
0.233686
0.23304
0.231611
0.229461
0.227382
0.110508
0.120874
0.130747
0.140225
0.149367
0.158224
0.16685
0.175278
0.183473
0.191382
0.198912
0.205937
0.212315
0.217907
0.222587
0.226262
0.228897
0.230518
0.23122
0.231159
0.230515
0.229228
0.227377
0.225444
0.113844
0.123851
0.133118
0.141837
0.150136
0.158108
0.165786
0.173249
0.180412
0.187169
0.193403
0.198977
0.203765
0.207675
0.210665
0.212746
0.213994
0.214543
0.214554
0.214196
0.213476
0.212388
0.210902
0.209043
0.116902
0.126747
0.135598
0.143685
0.15116
0.158133
0.164661
0.17068
0.176216
0.181218
0.185582
0.189195
0.191998
0.19398
0.195189
0.195732
0.195774
0.195537
0.195237
0.19508
0.195175
0.195232
0.195292
0.194993
0.119817
0.129741
0.138446
0.146166
0.153055
0.159222
0.164729
0.169596
0.17378
0.177224
0.179895
0.181825
0.183052
0.183663
0.183791
0.183601
0.183264
0.182932
0.182725
0.182775
0.183361
0.184824
0.186813
0.188913
0.122751
0.133065
0.14198
0.149727
0.156447
0.162244
0.167181
0.171297
0.174612
0.177161
0.178984
0.180146
0.180747
0.180923
0.180823
0.180582
0.180293
0.179969
0.179562
0.178978
0.177963
0.177597
0.178204
0.180984
0.125868
0.136956
0.146505
0.154742
0.161812
0.167821
0.172847
0.176948
0.180183
0.182621
0.184348
0.185472
0.186117
0.186404
0.186423
0.186226
0.185754
0.184781
0.183084
0.180504
0.176687
0.171582
0.166856
0.166117
0.12932
0.141631
0.152266
0.161476
0.169418
0.176217
0.181968
0.186746
0.190628
0.1937
0.196057
0.19779
0.198985
0.199696
0.199875
0.199579
0.198521
0.196145
0.191826
0.185614
0.178107
0.169354
0.159712
0.153839
0.133242
0.147266
0.159426
0.170029
0.179258
0.187268
0.194164
0.200023
0.204916
0.208897
0.212036
0.214331
0.215824
0.216491
0.216004
0.213916
0.209697
0.203466
0.195963
0.187334
0.177462
0.166128
0.153919
0.144346
0.137743
0.153987
0.16803
0.180299
0.191016
0.200363
0.20844
0.215299
0.220979
0.225456
0.228798
0.23075
0.230959
0.229212
0.225418
0.219814
0.212816
0.20421
0.193916
0.181905
0.168632
0.154747
0.140995
0.130001
0.142899
0.161844
0.17797
0.191947
0.204037
0.214442
0.223241
0.230434
0.236035
0.239713
0.24095
0.240028
0.237389
0.232728
0.226197
0.21758
0.206809
0.194138
0.179942
0.164751
0.149351
0.134621
0.12142
0.112438
0.148733
0.170774
0.188937
0.204346
0.217302
0.228018
0.236562
0.242637
0.245633
0.246035
0.244704
0.241204
0.234998
0.226229
0.21509
0.201861
0.186935
0.170838
0.154267
0.138052
0.123182
0.11065
0.101231
0.0973214
0.155194
0.180548
0.200367
0.216555
0.229448
0.239243
0.245248
0.24777
0.247804
0.245396
0.239855
0.231002
0.219556
0.205834
0.190296
0.173505
0.156125
0.139001
0.123086
0.1093
0.0983681
0.0908438
0.0871746
0.0876372
0.162118
0.190697
0.211414
0.227354
0.238795
0.245049
0.247574
0.246581
0.242277
0.233948
0.222323
0.208137
0.191997
0.174563
0.156571
0.138842
0.122316
0.107913
0.0962232
0.0875061
0.0818727
0.0794148
0.0796771
0.0818233
0.169208
0.200448
0.221005
0.235298
0.24271
0.245444
0.243313
0.236902
0.225717
0.211321
0.194597
0.176469
0.157836
0.139522
0.122464
0.107579
0.0953977
0.08599
0.0791876
0.0748239
0.0727887
0.0728434
0.0739158
0.0771105
0.176088
0.208788
0.228045
0.23843
0.242061
0.239359
0.231189
0.217459
0.200491
0.181611
0.162081
0.142984
0.125186
0.109553
0.0966456
0.0864715
0.0786954
0.0729541
0.0690269
0.0668208
0.0663528
0.0669291
0.0687666
0.0724894
0.182628
0.214944
0.231492
0.237788
0.235629
0.226835
0.211079
0.191933
0.171332
0.150913
0.131862
0.114964
0.100789
0.0894136
0.0804409
0.0733968
0.067945
0.0639024
0.0612534
0.0601503
0.0603636
0.0615254
0.0640292
0.0676682
0.189898
0.219313
0.231977
0.232581
0.224712
0.208037
0.187097
0.165074
0.143985
0.125062
0.108868
0.0955829
0.0849059
0.076289
0.0693008
0.063699
0.0593439
0.0562505
0.0545356
0.0542612
0.0548939
0.0566099
0.0593472
0.0627967
0.00485606
0.015708
0.048166
0.0876375
0.11253
0.119259
0.0178999
0.0340387
0.0711869
0.111364
0.148367
0.182488
0.0226963
0.0477698
0.0859934
0.12679
0.167686
0.205021
0.0249663
0.056961
0.0952754
0.136576
0.178169
0.213801
0.026676
0.0636547
0.101523
0.142982
0.184287
0.217985
0.029237
0.0683134
0.105767
0.147192
0.188116
0.220329
0.0312843
0.0714831
0.108512
0.149865
0.190681
0.22193
0.0328355
0.0734671
0.110034
0.15139
0.192526
0.223318
0.0339165
0.0744455
0.110495
0.151994
0.193933
0.224731
0.0345504
0.074529
0.109991
0.151808
0.195027
0.226261
0.0347421
0.0737866
0.10858
0.150848
0.195825
0.227908
0.0345822
0.0722604
0.106293
0.149109
0.196282
0.229626
0.0340887
0.0699661
0.103147
0.146525
0.196297
0.231326
0.0333574
0.0669377
0.0991477
0.142979
0.195661
0.232931
0.032365
0.0632388
0.0942924
0.138307
0.19405
0.234411
0.0310923
0.058932
0.0885812
0.132311
0.191088
0.235694
0.0295008
0.0540837
0.0820281
0.124776
0.186321
0.236608
0.0274695
0.0487843
0.074681
0.115483
0.179156
0.236776
0.0250018
0.0432395
0.0666563
0.104276
0.168864
0.235811
0.0236967
0.0379302
0.0581775
0.0911704
0.154675
0.232264
0.0222914
0.0331128
0.0495021
0.0764862
0.135771
0.223913
0.0203918
0.0282784
0.0405302
0.0606891
0.110982
0.206156
0.0166555
0.0220133
0.0299986
0.0431503
0.0792174
0.166599
0.00459585
0.00791062
0.0124088
0.0196619
0.0384108
0.116677
0.200894
0.223607
0.23033
0.224877
0.209113
0.186764
0.163382
0.141473
0.122323
0.10625
0.0930957
0.0823615
0.0735103
0.0662053
0.0602493
0.0555208
0.052006
0.049753
0.0488083
0.0489828
0.0499733
0.0519791
0.0546824
0.0578639
0.21845
0.228433
0.227015
0.214385
0.191232
0.166374
0.143209
0.123214
0.106551
0.0928282
0.0814727
0.0720042
0.0641494
0.0577151
0.0525674
0.0486309
0.0458696
0.0442702
0.0438162
0.044207
0.0454221
0.0474196
0.0499733
0.0528559
0.228198
0.230174
0.221892
0.200594
0.174079
0.149075
0.12753
0.109578
0.0946878
0.0822602
0.0718581
0.0632279
0.0561657
0.0505084
0.0461161
0.0428728
0.0406964
0.0395328
0.0393328
0.0398146
0.0410497
0.0429033
0.0452282
0.0478055
0.232531
0.229573
0.213725
0.186395
0.159147
0.135365
0.11546
0.0988493
0.0849142
0.0732375
0.0635641
0.0556786
0.0493792
0.0444622
0.0407361
0.038044
0.0362744
0.0353543
0.0352275
0.0356838
0.0367877
0.0384113
0.0404572
0.0427346
0.233738
0.226324
0.203312
0.173777
0.147087
0.12456
0.105668
0.0897501
0.076392
0.0653412
0.0563737
0.0492451
0.0436863
0.0394307
0.0362455
0.0339517
0.0324275
0.0315977
0.0314135
0.0317474
0.0326129
0.0339441
0.0356787
0.0376657
0.233502
0.221489
0.193086
0.163208
0.137415
0.115656
0.0972264
0.0816981
0.0688424
0.0584427
0.0502185
0.0438336
0.0389422
0.0352334
0.0324563
0.0304274
0.0290255
0.0281789
0.0278484
0.0279809
0.0285347
0.0295221
0.0309173
0.032621
0.232131
0.21583
0.184206
0.154672
0.129447
0.107943
0.0896816
0.0744828
0.0621807
0.0524878
0.0450065
0.0393032
0.0349777
0.0316997
0.0292183
0.0273553
0.0259934
0.0250639
0.0245338
0.0243905
0.0245976
0.0251816
0.0262013
0.0276186
0.230321
0.209994
0.177045
0.147757
0.12262
0.101034
0.0828537
0.0680387
0.056364
0.047399
0.0406166
0.0355073
0.0316433
0.0286956
0.0264243
0.024661
0.0232925
0.0222493
0.0214973
0.0210293
0.0208535
0.0209926
0.0215622
0.0226631
0.228548
0.204745
0.171277
0.142004
0.116575
0.0947509
0.076682
0.0623374
0.0513376
0.0430799
0.0369235
0.0323123
0.0288153
0.0261182
0.0239976
0.0222961
0.020904
0.0197476
0.0187839
0.017998
0.0174001
0.0170401
0.0170657
0.0177121
0.227132
0.200362
0.166711
0.137116
0.11113
0.0890267
0.0711467
0.0573452
0.0470289
0.0394245
0.0338076
0.0296039
0.026396
0.0238908
0.0218833
0.0202279
0.0188187
0.0175777
0.0164491
0.015398
0.0144125
0.013512
0.0127587
0.0124352
0.226303
0.196902
0.16318
0.132916
0.106202
0.0838411
0.0662317
0.0530134
0.0433528
0.0363285
0.0311643
0.0272895
0.0243096
0.0219551
0.0200395
0.0184294
0.0170253
0.0157487
0.0145344
0.0133252
0.0120662
0.0106951
0.00901869
0.00646007
0.226007
0.194534
0.160568
0.129304
0.101755
0.0791855
0.0619097
0.0492799
0.0402221
0.0336976
0.0289061
0.0252946
0.0224956
0.020263
0.0184281
0.0168698
0.0154975
0.0142384
0.0130304
0.0118137
0.0105241
0.00909929
0.00750761
0.00546299
0.226228
0.193307
0.158801
0.126227
0.0977775
0.0750484
0.0581414
0.046076
0.0375539
0.0314504
0.0269611
0.023559
0.0209037
0.0187713
0.0170086
0.0155062
0.0141821
0.012972
0.0118219
0.0106817
0.00949783
0.0082205
0.006825
0.00517209
0.227037
0.193274
0.157836
0.123662
0.094264
0.0714094
0.0548787
0.0433333
0.0352751
0.0295193
0.0252717
0.022034
0.0194922
0.0174415
0.0157419
0.0142934
0.0130209
0.0118661
0.0107807
0.00972068
0.00864051
0.00750255
0.00630235
0.00496105
0.228492
0.194439
0.157614
0.121594
0.0912048
0.0682389
0.0520692
0.0409886
0.0333233
0.0278498
0.0237923
0.0206818
0.0182284
0.0162436
0.014598
0.013199
0.0119769
0.0108776
0.00985707
0.00887624
0.00789613
0.00688897
0.00586163
0.00476814
0.230651
0.19686
0.157947
0.120021
0.0885831
0.065499
0.0496612
0.0389866
0.0316476
0.0263986
0.0224874
0.0194737
0.0170884
0.0151564
0.0135573
0.0122037
0.01103
0.00998543
0.0090293
0.0081263
0.00724286
0.00635838
0.00548438
0.00459322
0.233683
0.200523
0.159316
0.118966
0.0863717
0.0631502
0.0476084
0.0372805
0.030206
0.025131
0.0213299
0.018388
0.0160545
0.0141654
0.0126069
0.0112957
0.0101692
0.00917902
0.00828681
0.00746021
0.00666969
0.00589917
0.00516101
0.00443873
0.237652
0.205506
0.161413
0.118363
0.084529
0.0611533
0.0458679
0.035829
0.0289635
0.0240196
0.0202984
0.0174084
0.0151142
0.0132606
0.0117386
0.0104679
0.00938789
0.00845169
0.00762272
0.00687059
0.00616855
0.00550307
0.00488505
0.00430474
0.242663
0.211948
0.164192
0.11815
0.0830114
0.0594673
0.0443989
0.0345955
0.0278908
0.0230422
0.0193764
0.0165228
0.0142583
0.0124348
0.0109466
0.00971532
0.00868129
0.00779871
0.00703197
0.00635192
0.00573349
0.00516414
0.00465194
0.00419074
0.248994
0.219985
0.167566
0.118202
0.0817611
0.0580477
0.0431618
0.0335473
0.0269631
0.0221805
0.0185509
0.0157217
0.0134802
0.0116831
0.0102269
0.00903414
0.00804566
0.00721605
0.00651014
0.00589934
0.00535933
0.00487733
0.00445761
0.0040954
0.257163
0.229774
0.171071
0.118376
0.0807089
0.056845
0.0421177
0.0326549
0.0261591
0.0214197
0.0178116
0.0149982
0.0127748
0.0110017
0.00957626
0.00842131
0.00747771
0.00670005
0.00605315
0.00550837
0.00504129
0.00463783
0.00429793
0.00401684
0.268199
0.241398
0.17442
0.118581
0.0797754
0.0558048
0.0412279
0.0318912
0.0254604
0.0207475
0.0171505
0.0143468
0.0121385
0.0103876
0.00899201
0.00787409
0.00697438
0.0062472
0.005657
0.00517454
0.00477452
0.00444074
0.00416869
0.00395298
0.283707
0.254329
0.177269
0.118614
0.078843
0.0548649
0.0404545
0.0312315
0.0248511
0.0201538
0.0165611
0.0137635
0.0115682
0.00983848
0.00847179
0.00738981
0.00653256
0.0058539
0.00531756
0.00489316
0.0045539
0.00428097
0.00406566
0.00390179
0.30488
0.263985
0.1791
0.118052
0.0777939
0.0539774
0.0397707
0.0306597
0.0243217
0.0196331
0.0160403
0.0132464
0.0110627
0.00935299
0.00801389
0.00696625
0.00614946
0.00551671
0.00503069
0.00465941
0.00437413
0.00415342
0.00398489
0.00386146
)
;

boundaryField
{
    rotor
    {
        type            kqRWallFunction;
        value           nonuniform List<scalar> 
144
(
0.00688982
0.0348121
0.0764888
0.123433
0.152292
0.170676
0.00688982
0.0223018
0.0319603
0.0396743
0.0461642
0.0515683
0.0559938
0.0595251
0.0622273
0.0641502
0.0653377
0.0658475
0.0658155
0.0651558
0.0638223
0.0617669
0.0589377
0.0552719
0.0506967
0.0451353
0.0385214
0.0308265
0.0214947
0.00605385
0.00605385
0.0286987
0.0636983
0.106973
0.153707
0.184481
0.00964107
0.0139912
0.015583
0.0176408
0.0239591
0.0802534
0.00964107
0.0266579
0.0347681
0.0401058
0.0439551
0.0469833
0.0495083
0.0516559
0.0534791
0.0550069
0.0562621
0.0572683
0.058056
0.0583347
0.0581249
0.0572802
0.0557778
0.0535595
0.0505186
0.0464306
0.0410278
0.0339156
0.0241008
0.0100578
0.0100578
0.0439862
0.0913601
0.119015
0.132575
0.128413
0.00384542
0.00839805
0.016153
0.0243724
0.0317632
0.0497006
0.00384542
0.0158572
0.0197777
0.0218506
0.0234196
0.0244474
0.0248935
0.0250936
0.0258782
0.0266861
0.0273657
0.0278473
0.0280634
0.027992
0.0276331
0.0270079
0.0261698
0.0252735
0.0249483
0.0239855
0.0223978
0.0202498
0.0161968
0.00385184
0.00385184
0.00852065
0.0190203
0.0354303
0.0618368
0.111734
0.00485606
0.015708
0.048166
0.0876375
0.11253
0.119259
0.00485606
0.0178999
0.0226963
0.0249663
0.026676
0.029237
0.0312843
0.0328355
0.0339165
0.0345504
0.0347421
0.0345822
0.0340887
0.0333574
0.032365
0.0310923
0.0295008
0.0274695
0.0250018
0.0236967
0.0222914
0.0203918
0.0166555
0.00459585
0.00459585
0.00791062