/*--------------------------------*- C++ -*----------------------------------*\
  =========                 |
  \\      /  F ield         | OpenFOAM: The Open Source CFD Toolbox
   \\    /   O peration     | Website:  https://openfoam.org
    \\  /    A nd           | Version:  11
     \\/     M anipulation  |
\*---------------------------------------------------------------------------*/
FoamFile
{
    format      ascii;
    class       surfaceScalarField;
    location    "1.9";
    object      meshPhi;
}
// * * * * * * * * * * * * * * * * * * * * * * * * * * * * * * * * * * * * * //

dimensions      [0 3 -1 0 0 0 0];

internalField   nonuniform List<scalar> 
5640
(
1.36988e-16
9.81747e-07
2.42145e-16
1.37445e-06
3.7709e-16
1.76715e-06
-1.33906e-15
2.15984e-06
-3.68145e-15
2.55254e-06
2.94524e-06
5.95142e-15
1.8777e-18
9.81747e-07
-3.88748e-16
1.37445e-06
-2.60399e-15
1.76715e-06
1.94374e-15
2.15984e-06
8.06638e-15
2.55254e-06
2.94524e-06
-9.02956e-15
-1.16418e-16
9.81747e-07
1.86453e-16
1.37445e-06
-1.56225e-15
1.76715e-06
-4.2124e-15
2.15984e-06
-7.49824e-15
2.55254e-06
2.94524e-06
7.72619e-16
8.69902e-17
9.81747e-07
-1.01833e-16
1.37445e-06
2.69323e-15
1.76715e-06
7.44295e-15
2.15984e-06
3.26009e-15
2.55254e-06
2.94524e-06
-2.79774e-15
-4.83403e-17
9.81747e-07
3.95796e-17
1.37445e-06
1.94438e-16
1.76715e-06
-1.80605e-15
2.15984e-06
-4.20847e-15
2.55254e-06
2.94524e-06
5.01346e-15
-1.80067e-16
9.81747e-07
4.35677e-18
1.37445e-06
-1.84771e-15
1.76715e-06
-3.8861e-15
2.15984e-06
3.15731e-15
2.55254e-06
2.94524e-06
4.98294e-16
2.54022e-16
9.81747e-07
2.55468e-16
1.37445e-06
2.06608e-15
1.76715e-06
4.50422e-15
2.15984e-06
-2.30979e-15
2.55254e-06
2.94524e-06
5.40942e-16
2.16841e-17
9.81747e-07
-3.21639e-16
1.37445e-06
-1.14884e-15
1.76715e-06
-5.28543e-15
2.15984e-06
-3.76729e-16
2.55254e-06
2.94524e-06
-5.63964e-15
-1.43365e-16
9.81747e-07
1.66444e-16
1.37445e-06
4.19123e-15
1.76715e-06
6.34971e-15
2.15984e-06
-8.05629e-16
2.55254e-06
2.94524e-06
8.39554e-16
-6.8772e-17
9.81747e-07
-9.20106e-17
1.37445e-06
-2.76923e-15
1.76715e-06
-3.68607e-16
2.15984e-06
-1.45076e-15
2.55254e-06
2.94524e-06
-1.76451e-16
1.6636e-16
9.81747e-07
-8.86337e-17
1.37445e-06
5.69736e-16
1.76715e-06
-2.1034e-15
2.15984e-06
9.66022e-15
2.55254e-06
2.94524e-06
5.29047e-15
-1.77772e-16
9.81747e-07
-2.04523e-17
1.37445e-06
-3.45369e-16
1.76715e-06
-4.1725e-15
2.15984e-06
-2.62211e-15
2.55254e-06
2.94524e-06
5.36974e-15
1.77827e-16
9.81747e-07
2.05519e-17
1.37445e-06
3.45534e-16
1.76715e-06
4.17274e-15
2.15984e-06
2.62263e-15
2.55254e-06
2.94524e-06
-5.36917e-15
-1.66304e-16
9.81747e-07
8.8741e-17
1.37445e-06
-5.69538e-16
1.76715e-06
2.10365e-15
2.15984e-06
-9.65985e-15
2.55254e-06
2.94524e-06
-5.28985e-15
6.88329e-17
9.81747e-07
9.2092e-17
1.37445e-06
2.76948e-15
1.76715e-06
3.6893e-16
2.15984e-06
1.45107e-15
2.55254e-06
2.94524e-06
1.76838e-16
1.43435e-16
9.81747e-07
-1.66378e-16
1.37445e-06
-4.19104e-15
1.76715e-06
-6.34925e-15
2.15984e-06
8.05827e-16
2.55254e-06
2.94524e-06
-8.39161e-16
-2.1637e-17
9.81747e-07
3.21788e-16
1.37445e-06
1.14896e-15
1.76715e-06
5.28578e-15
2.15984e-06
3.76913e-16
2.55254e-06
2.94524e-06
5.64012e-15
-2.53932e-16
9.81747e-07
-2.5536e-16
1.37445e-06
-2.06587e-15
1.76715e-06
-4.50393e-15
2.15984e-06
2.31012e-15
2.55254e-06
2.94524e-06
-5.40449e-16
1.80142e-16
9.81747e-07
-4.23021e-18
1.37445e-06
1.84786e-15
1.76715e-06
3.88637e-15
2.15984e-06
-3.15694e-15
2.55254e-06
2.94524e-06
-4.97928e-16
4.84101e-17
9.81747e-07
-3.94295e-17
1.37445e-06
-1.94199e-16
1.76715e-06
1.80627e-15
2.15984e-06
4.20872e-15
2.55254e-06
2.94524e-06
-5.013e-15
-8.69174e-17
9.81747e-07
1.02002e-16
1.37445e-06
-2.69303e-15
1.76715e-06
-7.44271e-15
2.15984e-06
-3.25955e-15
2.55254e-06
2.94524e-06
2.79825e-15
1.16492e-16
9.81747e-07
-1.86328e-16
1.37445e-06
1.56247e-15
1.76715e-06
4.21267e-15
2.15984e-06
7.49865e-15
2.55254e-06
2.94524e-06
-7.72222e-16
-1.81941e-18
9.81747e-07
3.88854e-16
1.37445e-06
2.60434e-15
1.76715e-06
-1.94358e-15
2.15984e-06
-8.06594e-15
2.55254e-06
2.94524e-06
9.0301e-15
-1.36923e-16
-2.42017e-16
-3.7681e-16
1.3394e-15
3.68175e-15
-5.95117e-15
-1.13356e-14
4.53785e-06
-4.53785e-06
-4.80698e-16
5.23599e-06
-5.23599e-06
-5.35611e-15
5.93412e-06
-5.93412e-06
-1.13026e-14
6.63225e-06
-6.63225e-06
4.87011e-15
7.33038e-06
-7.33038e-06
-1.10816e-15
8.02851e-06
-8.02851e-06
-8.15678e-15
8.72664e-06
-8.72664e-06
1.30463e-14
9.42478e-06
-9.42478e-06
5.95172e-15
1.01229e-05
-1.01229e-05
-1.99577e-15
1.0821e-05
-1.0821e-05
2.43888e-14
1.15192e-05
-1.15192e-05
1.61936e-14
1.22173e-05
-1.22173e-05
-3.27837e-14
1.29154e-05
-1.29154e-05
-3.04928e-15
1.36136e-05
-1.36136e-05
-1.44389e-14
1.43117e-05
-1.43117e-05
-2.68972e-14
1.50098e-05
-1.50098e-05
7.7434e-15
1.5708e-05
-1.5708e-05
-4.43363e-15
1.64061e-05
-1.64061e-05
-1.79962e-14
1.71042e-05
-1.71042e-05
2.18259e-14
1.78024e-05
-1.78024e-05
8.21463e-15
1.85005e-05
-1.85005e-05
-6.07801e-15
1.91986e-05
-1.91986e-05
3.89283e-14
1.98967e-05
-1.98967e-05
2.05949e-05
-2.05949e-05
9.39916e-15
4.53785e-06
5.20893e-16
5.23599e-06
7.52931e-15
5.93412e-06
-4.41072e-15
6.63225e-06
3.78428e-15
7.33038e-06
1.3386e-14
8.02851e-06
-2.10819e-15
8.72664e-06
8.52854e-15
9.42478e-06
-1.00254e-14
1.01229e-05
1.86874e-15
1.0821e-05
-2.02018e-14
1.15192e-05
-7.01002e-15
1.22173e-05
7.51232e-15
1.29154e-05
2.36103e-14
1.36136e-05
-2.03729e-15
1.43117e-05
1.48344e-14
1.50098e-05
-1.38751e-14
1.5708e-05
2.39694e-15
1.64061e-05
2.04137e-14
1.71042e-05
-7.01189e-15
1.78024e-05
1.20701e-14
1.85005e-05
-2.59369e-14
1.91986e-05
1.85471e-15
1.98967e-05
2.05949e-05
-8.67603e-15
4.53785e-06
1.22929e-14
5.23599e-06
1.88398e-15
5.93412e-06
8.9032e-15
6.63225e-06
-5.10711e-15
7.33038e-06
-2.19893e-14
8.02851e-06
1.22655e-14
8.72664e-06
-5.37337e-15
9.42478e-06
4.45734e-15
1.01229e-05
-1.43026e-14
1.0821e-05
-7.32497e-15
1.15192e-05
7.04292e-15
1.22173e-05
2.3999e-14
1.29154e-05
-7.55276e-15
1.36136e-05
9.80397e-15
1.43117e-05
-1.62334e-14
1.50098e-05
4.02987e-14
1.5708e-05
1.4452e-14
1.64061e-05
-1.36994e-14
1.71042e-05
-7.89114e-15
1.78024e-05
-3.9248e-14
1.85005e-05
4.27557e-14
1.91986e-05
-8.84369e-15
1.98967e-05
2.05949e-05
5.9863e-15
4.53785e-06
2.19255e-16
5.23599e-06
-6.43495e-15
5.93412e-06
6.06465e-15
6.63225e-06
-2.09156e-15
7.33038e-06
1.61772e-14
8.02851e-06
-1.88299e-14
8.72664e-06
-2.34936e-15
9.42478e-06
9.17321e-15
1.01229e-05
-4.70796e-15
1.0821e-05
2.16301e-14
1.15192e-05
-2.96422e-14
1.22173e-05
-9.2856e-15
1.29154e-05
-1.89046e-14
1.36136e-05
4.47135e-15
1.43117e-05
3.0157e-14
1.50098e-05
-2.62147e-14
1.5708e-05
4.41256e-16
1.64061e-05
-2.11643e-14
1.71042e-05
1.87188e-14
1.78024e-05
-3.91836e-15
1.85005e-05
-2.91553e-14
1.91986e-05
1.52421e-14
1.98967e-05
2.05949e-05
6.71544e-15
4.53785e-06
-7.30617e-15
5.23599e-06
1.11012e-14
5.93412e-06
-4.24023e-15
6.63225e-06
1.51032e-14
7.33038e-06
-5.20855e-15
8.02851e-06
1.70148e-14
8.72664e-06
-3.93952e-15
9.42478e-06
-2.93122e-16
1.01229e-05
6.61318e-15
1.0821e-05
1.37085e-14
1.15192e-05
1.01867e-14
1.22173e-05
1.82213e-14
1.29154e-05
1.43697e-14
1.36136e-05
2.33448e-14
1.43117e-05
-2.53438e-14
1.50098e-05
2.90771e-14
1.5708e-05
-7.8244e-15
1.64061e-05
3.54211e-14
1.71042e-05
-4.50401e-15
1.78024e-05
4.23751e-14
1.85005e-05
-5.83657e-16
1.91986e-05
-8.72323e-15
1.98967e-05
2.05949e-05
-4.63027e-15
4.53785e-06
5.79803e-15
5.23599e-06
-1.61498e-14
5.93412e-06
-5.97315e-15
6.63225e-06
-8.5544e-15
7.33038e-06
4.22527e-15
8.02851e-06
-8.18624e-15
8.72664e-06
7.00194e-15
9.42478e-06
-2.42278e-14
1.01229e-05
-7.76744e-15
1.0821e-05
-2.27623e-14
1.15192e-05
8.35015e-15
1.22173e-05
-7.4e-15
1.29154e-05
2.82717e-14
1.36136e-05
-4.57091e-14
1.43117e-05
-8.21961e-15
1.50098e-05
-2.82222e-14
1.5708e-05
-2.33554e-15
1.64061e-05
-6.94482e-15
1.71042e-05
2.21539e-14
1.78024e-05
-3.41034e-14
1.85005e-05
-3.73311e-15
1.91986e-05
-3.23417e-14
1.98967e-05
2.05949e-05
-8.92486e-15
4.53785e-06
-2.28817e-15
5.23599e-06
-2.22345e-15
5.93412e-06
6.61695e-15
6.63225e-06
-3.38681e-15
7.33038e-06
-3.90602e-15
8.02851e-06
-6.41758e-15
8.72664e-06
-7.15711e-15
9.42478e-06
6.81233e-15
1.01229e-05
6.98464e-15
1.0821e-05
-9.06222e-15
1.15192e-05
6.76214e-15
1.22173e-05
-2.88852e-14
1.29154e-05
-1.22314e-14
1.36136e-05
4.80691e-15
1.43117e-05
2.50298e-14
1.50098e-05
3.8658e-15
1.5708e-05
3.61088e-15
1.64061e-05
-2.04809e-14
1.71042e-05
-2.17575e-14
1.78024e-05
3.47335e-15
1.85005e-05
2.90517e-14
1.91986e-05
-1.65677e-15
1.98967e-05
2.05949e-05
6.21615e-15
4.53785e-06
-3.87881e-15
5.23599e-06
1.54228e-14
5.93412e-06
-7.0648e-15
6.63225e-06
-2.20993e-15
7.33038e-06
1.43036e-15
8.02851e-06
-5.49193e-15
8.72664e-06
1.32281e-14
9.42478e-06
6.04869e-15
1.01229e-05
-1.74482e-14
1.0821e-05
2.0889e-14
1.15192e-05
-2.14435e-14
1.22173e-05
1.91391e-14
1.29154e-05
-7.31459e-15
1.36136e-05
3.84891e-14
1.43117e-05
-1.29193e-14
1.50098e-05
-1.87801e-15
1.5708e-05
5.72144e-15
1.64061e-05
-7.58266e-15
1.71042e-05
2.76645e-14
1.78024e-05
1.41038e-14
1.85005e-05
-5.31355e-14
1.91986e-05
3.90917e-14
1.98967e-05
2.05949e-05
-1.49818e-15
4.53785e-06
1.08973e-14
5.23599e-06
-6.59864e-15
5.93412e-06
7.26563e-15
6.63225e-06
6.17506e-15
7.33038e-06
2.49041e-15
8.02851e-06
-9.62825e-16
8.72664e-06
-4.36416e-15
9.42478e-06
-8.89829e-15
1.01229e-05
1.38642e-14
1.0821e-05
1.06913e-14
1.15192e-05
6.2529e-15
1.22173e-05
-1.25446e-16
1.29154e-05
-3.43805e-15
1.36136e-05
-1.10411e-14
1.43117e-05
-1.77629e-14
1.50098e-05
1.7683e-14
1.5708e-05
9.96164e-15
1.64061e-05
3.33028e-15
1.71042e-05
-3.29616e-14
1.78024e-05
-1.04163e-14
1.85005e-05
3.00761e-14
1.91986e-05
-5.99896e-14
1.98967e-05
2.05949e-05
5.17073e-15
4.53785e-06
-7.45508e-15
5.23599e-06
-7.55895e-16
5.93412e-06
6.83983e-15
6.63225e-06
-9.97317e-15
7.33038e-06
-1.6631e-15
8.02851e-06
9.21981e-15
8.72664e-06
-1.34571e-14
9.42478e-06
2.32236e-14
1.01229e-05
1.04732e-14
1.0821e-05
-1.72696e-14
1.15192e-05
-3.02358e-15
1.22173e-05
1.13992e-14
1.29154e-05
-1.98156e-14
1.36136e-05
-4.67602e-15
1.43117e-05
5.03099e-14
1.50098e-05
-2.40418e-14
1.5708e-05
-6.6524e-15
1.64061e-05
1.42638e-14
1.71042e-05
1.65202e-15
1.78024e-05
-6.80333e-15
1.85005e-05
1.44517e-14
1.91986e-05
5.07629e-14
1.98967e-05
2.05949e-05
-6.1969e-15
4.53785e-06
2.88266e-17
5.23599e-06
1.15119e-14
5.93412e-06
-2.06254e-14
6.63225e-06
5.36733e-15
7.33038e-06
1.22248e-15
8.02851e-06
-4.50276e-17
8.72664e-06
1.23956e-14
9.42478e-06
-1.32241e-14
1.01229e-05
-1.88933e-14
1.0821e-05
-4.96091e-15
1.15192e-05
-7.15061e-15
1.22173e-05
-1.48856e-14
1.29154e-05
3.53426e-14
1.36136e-05
3.22146e-18
1.43117e-05
-4.31336e-14
1.50098e-05
1.35692e-14
1.5708e-05
-2.82544e-14
1.64061e-05
2.45896e-15
1.71042e-05
-1.02367e-14
1.78024e-05
2.38087e-14
1.85005e-05
1.38794e-14
1.91986e-05
-4.55571e-14
1.98967e-05
2.05949e-05
-1.90627e-15
4.53785e-06
1.13114e-15
5.23599e-06
-2.16616e-14
5.93412e-06
9.62521e-15
6.63225e-06
1.51379e-14
7.33038e-06
-1.40649e-14
8.02851e-06
8.09449e-15
8.72664e-06
-2.69577e-14
9.42478e-06
-1.96418e-15
1.01229e-05
2.97181e-14
1.0821e-05
-1.17435e-14
1.15192e-05
1.98695e-14
1.22173e-05
-2.74429e-14
1.29154e-05
-2.06111e-14
1.36136e-05
1.60449e-14
1.43117e-05
-4.61021e-15
1.50098e-05
4.69802e-15
1.5708e-05
4.79702e-14
1.64061e-05
-1.37351e-14
1.71042e-05
3.2378e-14
1.78024e-05
-3.51795e-14
1.85005e-05
-2.49028e-14
1.91986e-05
7.19203e-14
1.98967e-05
2.05949e-05
1.90678e-15
4.53785e-06
-1.13007e-15
5.23599e-06
2.16625e-14
5.93412e-06
-9.62311e-15
6.63225e-06
-1.51362e-14
7.33038e-06
1.40665e-14
8.02851e-06
-8.0922e-15
8.72664e-06
2.69602e-14
9.42478e-06
1.96668e-15
1.01229e-05
-2.97149e-14
1.0821e-05
1.17475e-14
1.15192e-05
-1.98658e-14
1.22173e-05
2.74464e-14
1.29154e-05
2.06167e-14
1.36136e-05
-1.60372e-14
1.43117e-05
4.61572e-15
1.50098e-05
-4.6879e-15
1.5708e-05
-4.79676e-14
1.64061e-05
1.37413e-14
1.71042e-05
-3.23688e-14
1.78024e-05
3.51905e-14
1.85005e-05
2.49092e-14
1.91986e-05
-7.1912e-14
1.98967e-05
2.05949e-05
6.19748e-15
4.53785e-06
-2.82557e-17
5.23599e-06
-1.15111e-14
5.93412e-06
2.06264e-14
6.63225e-06
-5.36598e-15
7.33038e-06
-1.22084e-15
8.02851e-06
4.72612e-17
8.72664e-06
-1.23921e-14
9.42478e-06
1.32271e-14
1.01229e-05
1.88965e-14
1.0821e-05
4.9668e-15
1.15192e-05
7.15501e-15
1.22173e-05
1.4888e-14
1.29154e-05
-3.53377e-14
1.36136e-05
4.42007e-18
1.43117e-05
4.31406e-14
1.50098e-05
-1.35599e-14
1.5708e-05
2.82602e-14
1.64061e-05
-2.45123e-15
1.71042e-05
1.02458e-14
1.78024e-05
-2.3798e-14
1.85005e-05
-1.38699e-14
1.91986e-05
4.55663e-14
1.98967e-05
2.05949e-05
-5.17006e-15
4.53785e-06
7.45596e-15
5.23599e-06
7.57266e-16
5.93412e-06
-6.8394e-15
6.63225e-06
9.97512e-15
7.33038e-06
1.66578e-15
8.02851e-06
-9.21824e-15
8.72664e-06
1.34615e-14
9.42478e-06
-2.32196e-14
1.01229e-05
-1.04719e-14
1.0821e-05
1.72747e-14
1.15192e-05
3.02906e-15
1.22173e-05
-1.13957e-14
1.29154e-05
1.98194e-14
1.36136e-05
4.68153e-15
1.43117e-05
-5.03025e-14
1.50098e-05
2.40471e-14
1.5708e-05
6.66314e-15
1.64061e-05
-1.42561e-14
1.71042e-05
-1.64438e-15
1.78024e-05
6.81517e-15
1.85005e-05
-1.44421e-14
1.91986e-05
-5.07505e-14
1.98967e-05
2.05949e-05
1.49908e-15
4.53785e-06
-1.08968e-14
5.23599e-06
6.60016e-15
5.93412e-06
-7.26497e-15
6.63225e-06
-6.1742e-15
7.33038e-06
-2.48767e-15
8.02851e-06
9.66104e-16
8.72664e-06
4.36599e-15
9.42478e-06
8.90328e-15
1.01229e-05
-1.38606e-14
1.0821e-05
-1.06889e-14
1.15192e-05
-6.24918e-15
1.22173e-05
1.30004e-16
1.29154e-05
3.44247e-15
1.36136e-05
1.10436e-14
1.43117e-05
1.77677e-14
1.50098e-05
-1.76799e-14
1.5708e-05
-9.95069e-15
1.64061e-05
-3.32446e-15
1.71042e-05
3.29689e-14
1.78024e-05
1.04265e-14
1.85005e-05
-3.00582e-14
1.91986e-05
5.99984e-14
1.98967e-05
2.05949e-05
-6.21512e-15
4.53785e-06
3.87982e-15
5.23599e-06
-1.5422e-14
5.93412e-06
7.06599e-15
6.63225e-06
2.21113e-15
7.33038e-06
-1.42827e-15
8.02851e-06
5.49357e-15
8.72664e-06
-1.32245e-14
9.42478e-06
-6.04495e-15
1.01229e-05
1.74528e-14
1.0821e-05
-2.08856e-14
1.15192e-05
2.14465e-14
1.22173e-05
-1.91313e-14
1.29154e-05
7.31725e-15
1.36136e-05
-3.84823e-14
1.43117e-05
1.2925e-14
1.50098e-05
1.88663e-15
1.5708e-05
-5.71309e-15
1.64061e-05
7.5894e-15
1.71042e-05
-2.76561e-14
1.78024e-05
-1.40936e-14
1.85005e-05
5.31475e-14
1.91986e-05
-3.90779e-14
1.98967e-05
2.05949e-05
8.92562e-15
4.53785e-06
2.28941e-15
5.23599e-06
2.22478e-15
5.93412e-06
-6.61538e-15
6.63225e-06
3.38894e-15
7.33038e-06
3.90816e-15
8.02851e-06
6.41973e-15
8.72664e-06
7.15911e-15
9.42478e-06
-6.80821e-15
1.01229e-05
-6.98046e-15
1.0821e-05
9.0665e-15
1.15192e-05
-6.75703e-15
1.22173e-05
2.88923e-14
1.29154e-05
1.22377e-14
1.36136e-05
-4.80146e-15
1.43117e-05
-2.50227e-14
1.50098e-05
-3.85887e-15
1.5708e-05
-3.60338e-15
1.64061e-05
2.04855e-14
1.71042e-05
2.17644e-14
1.78024e-05
-3.46176e-15
1.85005e-05
-2.90359e-14
1.91986e-05
1.6705e-15
1.98967e-05
2.05949e-05
4.63068e-15
4.53785e-06
-5.79709e-15
5.23599e-06
1.61513e-14
5.93412e-06
5.97488e-15
6.63225e-06
8.556e-15
7.33038e-06
-4.22317e-15
8.02851e-06
8.18796e-15
8.72664e-06
-6.99802e-15
9.42478e-06
2.42317e-14
1.01229e-05
7.77144e-15
1.0821e-05
2.27668e-14
1.15192e-05
-8.34655e-15
1.22173e-05
7.40667e-15
1.29154e-05
-2.82621e-14
1.36136e-05
4.5714e-14
1.43117e-05
8.2245e-15
1.50098e-05
2.8227e-14
1.5708e-05
2.34514e-15
1.64061e-05
6.9506e-15
1.71042e-05
-2.21455e-14
1.78024e-05
3.41149e-14
1.85005e-05
3.74368e-15
1.91986e-05
3.23504e-14
1.98967e-05
2.05949e-05
-6.71467e-15
4.53785e-06
7.30721e-15
5.23599e-06
-1.11002e-14
5.93412e-06
4.24167e-15
6.63225e-06
-1.51014e-14
7.33038e-06
5.20995e-15
8.02851e-06
-1.70125e-14
8.72664e-06
3.9418e-15
9.42478e-06
2.9481e-16
1.01229e-05
-6.60912e-15
1.0821e-05
-1.37036e-14
1.15192e-05
-1.01814e-14
1.22173e-05
-1.82155e-14
1.29154e-05
-1.43651e-14
1.36136e-05
-2.33365e-14
1.43117e-05
2.53463e-14
1.50098e-05
-2.90704e-14
1.5708e-05
7.83251e-15
1.64061e-05
-3.54131e-14
1.71042e-05
4.51567e-15
1.78024e-05
-4.23666e-14
1.85005e-05
5.91624e-16
1.91986e-05
8.7359e-15
1.98967e-05
2.05949e-05
-5.98563e-15
4.53785e-06
-2.18508e-16
5.23599e-06
6.43619e-15
5.93412e-06
-6.0633e-15
6.63225e-06
2.09298e-15
7.33038e-06
-1.61757e-14
8.02851e-06
1.88327e-14
8.72664e-06
2.35179e-15
9.42478e-06
-9.17099e-15
1.01229e-05
4.7124e-15
1.0821e-05
-2.16253e-14
1.15192e-05
2.96474e-14
1.22173e-05
9.29239e-15
1.29154e-05
1.89099e-14
1.36136e-05
-4.4644e-15
1.43117e-05
-3.01531e-14
1.50098e-05
2.62198e-14
1.5708e-05
-4.28986e-16
1.64061e-05
2.11747e-14
1.71042e-05
-1.87116e-14
1.78024e-05
3.92398e-15
1.85005e-05
2.91617e-14
1.91986e-05
-1.52241e-14
1.98967e-05
2.05949e-05
8.67654e-15
4.53785e-06
-1.22921e-14
5.23599e-06
-1.88282e-15
5.93412e-06
-8.90145e-15
6.63225e-06
5.10922e-15
7.33038e-06
2.19918e-14
8.02851e-06
-1.22628e-14
8.72664e-06
5.37472e-15
9.42478e-06
-4.45429e-15
1.01229e-05
1.43075e-14
1.0821e-05
7.32778e-15
1.15192e-05
-7.03971e-15
1.22173e-05
-2.39938e-14
1.29154e-05
7.55721e-15
1.36136e-05
-9.79707e-15
1.43117e-05
1.62388e-14
1.50098e-05
-4.02891e-14
1.5708e-05
-1.4439e-14
1.64061e-05
1.37072e-14
1.71042e-05
7.89949e-15
1.78024e-05
3.92568e-14
1.85005e-05
-4.27478e-14
1.91986e-05
8.85465e-15
1.98967e-05
2.05949e-05
-9.39853e-15
4.53785e-06
-5.19611e-16
5.23599e-06
-7.52821e-15
5.93412e-06
4.41246e-15
6.63225e-06
-3.78219e-15
7.33038e-06
-1.33832e-14
8.02851e-06
2.11123e-15
8.72664e-06
-8.52761e-15
9.42478e-06
1.00292e-14
1.01229e-05
-1.86323e-15
1.0821e-05
2.02062e-14
1.15192e-05
7.01445e-15
1.22173e-05
-7.50839e-15
1.29154e-05
-2.36065e-14
1.36136e-05
2.04708e-15
1.43117e-05
-1.48307e-14
1.50098e-05
1.38848e-14
1.5708e-05
-2.38783e-15
1.64061e-05
-2.04063e-14
1.71042e-05
7.02232e-15
1.78024e-05
-1.20596e-14
1.85005e-05
2.59474e-14
1.91986e-05
-1.83953e-15
1.98967e-05
2.05949e-05
1.13364e-14
4.53785e-06
4.81659e-16
5.23599e-06
5.35761e-15
5.93412e-06
1.13043e-14
6.63225e-06
-4.86854e-15
7.33038e-06
1.11051e-15
8.02851e-06
8.1598e-15
8.72664e-06
-1.30423e-14
9.42478e-06
-5.94697e-15
1.01229e-05
1.99777e-15
1.0821e-05
-2.4385e-14
1.15192e-05
-1.61869e-14
1.22173e-05
3.27896e-14
1.29154e-05
3.05423e-15
1.36136e-05
1.44449e-14
1.43117e-05
2.69034e-14
1.50098e-05
-7.73509e-15
1.5708e-05
4.44206e-15
1.64061e-05
1.80043e-14
1.71042e-05
-2.18177e-14
1.78024e-05
-8.2073e-15
1.85005e-05
6.08612e-15
1.91986e-05
-3.89126e-14
1.98967e-05
2.05949e-05
1.36988e-16
9.81747e-07
2.42187e-16
1.37445e-06
3.77091e-16
1.76715e-06
-1.33906e-15
2.15984e-06
-3.68145e-15
2.55254e-06
2.94524e-06
5.95153e-15
1.8777e-18
9.81747e-07
-3.88748e-16
1.37445e-06
-2.60399e-15
1.76715e-06
1.94374e-15
2.15984e-06
8.06638e-15
2.55254e-06
2.94524e-06
-9.02956e-15
-1.16418e-16
9.81747e-07
1.86453e-16
1.37445e-06
-1.56225e-15
1.76715e-06
-4.2124e-15
2.15984e-06
-7.49824e-15
2.55254e-06
2.94524e-06
7.72619e-16
8.69902e-17
9.81747e-07
-1.01833e-16
1.37445e-06
2.69323e-15
1.76715e-06
7.44295e-15
2.15984e-06
3.26009e-15
2.55254e-06
2.94524e-06
-2.79774e-15
-4.83403e-17
9.81747e-07
3.95796e-17
1.37445e-06
1.94438e-16
1.76715e-06
-1.80605e-15
2.15984e-06
-4.20847e-15
2.55254e-06
2.94524e-06
5.01346e-15
-1.80067e-16
9.81747e-07
4.35677e-18
1.37445e-06
-1.84771e-15
1.76715e-06
-3.8861e-15
2.15984e-06
3.15731e-15
2.55254e-06
2.94524e-06
4.98294e-16
2.54022e-16
9.81747e-07
2.55468e-16
1.37445e-06
2.06608e-15
1.76715e-06
4.50422e-15
2.15984e-06
-2.30979e-15
2.55254e-06
2.94524e-06
5.40942e-16
2.16841e-17
9.81747e-07
-3.21639e-16
1.37445e-06
-1.14884e-15
1.76715e-06
-5.28543e-15
2.15984e-06
-3.76729e-16
2.55254e-06
2.94524e-06
-5.63964e-15
-1.43365e-16
9.81747e-07
1.66444e-16
1.37445e-06
4.19123e-15
1.76715e-06
6.34971e-15
2.15984e-06
-8.05629e-16
2.55254e-06
2.94524e-06
8.39554e-16
-6.8772e-17
9.81747e-07
-9.20106e-17
1.37445e-06
-2.76923e-15
1.76715e-06
-3.68607e-16
2.15984e-06
-1.45076e-15
2.55254e-06
2.94524e-06
-1.76451e-16
1.6636e-16
9.81747e-07
-8.86337e-17
1.37445e-06
5.69736e-16
1.76715e-06
-2.1034e-15
2.15984e-06
9.66022e-15
2.55254e-06
2.94524e-06
5.29047e-15
-1.77772e-16
9.81747e-07
-2.04523e-17
1.37445e-06
-3.45369e-16
1.76715e-06
-4.1725e-15
2.15984e-06
-2.62211e-15
2.55254e-06
2.94524e-06
5.36974e-15
1.77827e-16
9.81747e-07
2.05519e-17
1.37445e-06
3.45534e-16
1.76715e-06
4.17274e-15
2.15984e-06
2.62263e-15
2.55254e-06
2.94524e-06
-5.36917e-15
-1.66304e-16
9.81747e-07
8.8741e-17
1.37445e-06
-5.69538e-16
1.76715e-06
2.10365e-15
2.15984e-06
-9.65985e-15
2.55254e-06
2.94524e-06
-5.28985e-15
6.88329e-17
9.81747e-07
9.2092e-17
1.37445e-06
2.76948e-15
1.76715e-06
3.6893e-16
2.15984e-06
1.45107e-15
2.55254e-06
2.94524e-06
1.76838e-16
1.43435e-16
9.81747e-07
-1.66378e-16
1.37445e-06
-4.19104e-15
1.76715e-06
-6.34925e-15
2.15984e-06
8.05827e-16
2.55254e-06
2.94524e-06
-8.39161e-16
-2.1637e-17
9.81747e-07
3.21788e-16
1.37445e-06
1.14896e-15
1.76715e-06
5.28578e-15
2.15984e-06
3.76913e-16
2.55254e-06
2.94524e-06
5.64012e-15
-2.53932e-16
9.81747e-07
-2.5536e-16
1.37445e-06
-2.06587e-15
1.76715e-06
-4.50393e-15
2.15984e-06
2.31012e-15
2.55254e-06
2.94524e-06
-5.40449e-16
1.80142e-16
9.81747e-07
-4.23021e-18
1.37445e-06
1.84786e-15
1.76715e-06
3.88637e-15
2.15984e-06
-3.15694e-15
2.55254e-06
2.94524e-06
-4.97928e-16
4.84101e-17
9.81747e-07
-3.94295e-17
1.37445e-06
-1.94199e-16
1.76715e-06
1.80627e-15
2.15984e-06
4.20872e-15
2.55254e-06
2.94524e-06
-5.013e-15
-8.69174e-17
9.81747e-07
1.02002e-16
1.37445e-06
-2.69303e-15
1.76715e-06
-7.44271e-15
2.15984e-06
-3.25955e-15
2.55254e-06
2.94524e-06
2.79825e-15
1.16492e-16
9.81747e-07
-1.86328e-16
1.37445e-06
1.56247e-15
1.76715e-06
4.21267e-15
2.15984e-06
7.49865e-15
2.55254e-06
2.94524e-06
-7.72222e-16
-1.81941e-18
9.81747e-07
3.88854e-16
1.37445e-06
2.60434e-15
1.76715e-06
-1.94358e-15
2.15984e-06
-8.06594e-15
2.55254e-06
2.94524e-06
9.0301e-15
-1.36918e-16
-2.42032e-16
-3.76848e-16
1.33946e-15
3.68174e-15
-5.95117e-15
-1.13357e-14
4.53785e-06
-4.80698e-16
5.23599e-06
-5.35623e-15
5.93412e-06
-1.13028e-14
6.63225e-06
4.87023e-15
7.33038e-06
-1.10798e-15
8.02851e-06
-8.15723e-15
8.72664e-06
1.30459e-14
9.42478e-06
5.95184e-15
1.01229e-05
-1.99577e-15
1.0821e-05
2.43888e-14
1.15192e-05
1.61936e-14
1.22173e-05
-3.27837e-14
1.29154e-05
-3.04928e-15
1.36136e-05
-1.44389e-14
1.43117e-05
-2.68979e-14
1.50098e-05
7.74372e-15
1.5708e-05
-4.43192e-15
1.64061e-05
-1.79958e-14
1.71042e-05
2.18244e-14
1.78024e-05
8.21578e-15
1.85005e-05
-6.07995e-15
1.91986e-05
3.89271e-14
1.98967e-05
2.05949e-05
9.39916e-15
4.53785e-06
5.20893e-16
5.23599e-06
7.52931e-15
5.93412e-06
-4.41072e-15
6.63225e-06
3.78428e-15
7.33038e-06
1.3386e-14
8.02851e-06
-2.10819e-15
8.72664e-06
8.52854e-15
9.42478e-06
-1.00254e-14
1.01229e-05
1.86874e-15
1.0821e-05
-2.02018e-14
1.15192e-05
-7.01002e-15
1.22173e-05
7.51232e-15
1.29154e-05
2.36103e-14
1.36136e-05
-2.03729e-15
1.43117e-05
1.48344e-14
1.50098e-05
-1.38751e-14
1.5708e-05
2.39694e-15
1.64061e-05
2.04137e-14
1.71042e-05
-7.01189e-15
1.78024e-05
1.20701e-14
1.85005e-05
-2.59369e-14
1.91986e-05
1.85471e-15
1.98967e-05
2.05949e-05
-8.67603e-15
4.53785e-06
1.22929e-14
5.23599e-06
1.88398e-15
5.93412e-06
8.9032e-15
6.63225e-06
-5.10711e-15
7.33038e-06
-2.19893e-14
8.02851e-06
1.22655e-14
8.72664e-06
-5.37337e-15
9.42478e-06
4.45734e-15
1.01229e-05
-1.43026e-14
1.0821e-05
-7.32497e-15
1.15192e-05
7.04292e-15
1.22173e-05
2.3999e-14
1.29154e-05
-7.55276e-15
1.36136e-05
9.80397e-15
1.43117e-05
-1.62334e-14
1.50098e-05
4.02987e-14
1.5708e-05
1.4452e-14
1.64061e-05
-1.36994e-14
1.71042e-05
-7.89114e-15
1.78024e-05
-3.9248e-14
1.85005e-05
4.27557e-14
1.91986e-05
-8.84369e-15
1.98967e-05
2.05949e-05
5.9863e-15
4.53785e-06
2.19255e-16
5.23599e-06
-6.43495e-15
5.93412e-06
6.06465e-15
6.63225e-06
-2.09156e-15
7.33038e-06
1.61772e-14
8.02851e-06
-1.88299e-14
8.72664e-06
-2.34936e-15
9.42478e-06
9.17321e-15
1.01229e-05
-4.70796e-15
1.0821e-05
2.16301e-14
1.15192e-05
-2.96422e-14
1.22173e-05
-9.2856e-15
1.29154e-05
-1.89046e-14
1.36136e-05
4.47135e-15
1.43117e-05
3.0157e-14
1.50098e-05
-2.62147e-14
1.5708e-05
4.41256e-16
1.64061e-05
-2.11643e-14
1.71042e-05
1.87188e-14
1.78024e-05
-3.91836e-15
1.85005e-05
-2.91553e-14
1.91986e-05
1.52421e-14
1.98967e-05
2.05949e-05
6.71544e-15
4.53785e-06
-7.30617e-15
5.23599e-06
1.11012e-14
5.93412e-06
-4.24023e-15
6.63225e-06
1.51032e-14
7.33038e-06
-5.20855e-15
8.02851e-06
1.70148e-14
8.72664e-06
-3.93952e-15
9.42478e-06
-2.93122e-16
1.01229e-05
6.61318e-15
1.0821e-05
1.37085e-14
1.15192e-05
1.01867e-14
1.22173e-05
1.82213e-14
1.29154e-05
1.43697e-14
1.36136e-05
2.33448e-14
1.43117e-05
-2.53438e-14
1.50098e-05
2.90771e-14
1.5708e-05
-7.8244e-15
1.64061e-05
3.54211e-14
1.71042e-05
-4.50401e-15
1.78024e-05
4.23751e-14
1.85005e-05
-5.83657e-16
1.91986e-05
-8.72323e-15
1.98967e-05
2.05949e-05
-4.63027e-15
4.53785e-06
5.79803e-15
5.23599e-06
-1.61498e-14
5.93412e-06
-5.97315e-15
6.63225e-06
-8.5544e-15
7.33038e-06
4.22527e-15
8.02851e-06
-8.18624e-15
8.72664e-06
7.00194e-15
9.42478e-06
-2.42278e-14
1.01229e-05
-7.76744e-15
1.0821e-05
-2.27623e-14
1.15192e-05
8.35015e-15
1.22173e-05
-7.4e-15
1.29154e-05
2.82717e-14
1.36136e-05
-4.57091e-14
1.43117e-05
-8.21961e-15
1.50098e-05
-2.82222e-14
1.5708e-05
-2.33554e-15
1.64061e-05
-6.94482e-15
1.71042e-05
2.21539e-14
1.78024e-05
-3.41034e-14
1.85005e-05
-3.73311e-15
1.91986e-05
-3.23417e-14
1.98967e-05
2.05949e-05
-8.92486e-15
4.53785e-06
-2.28817e-15
5.23599e-06
-2.22345e-15
5.93412e-06
6.61695e-15
6.63225e-06
-3.38681e-15
7.33038e-06
-3.90602e-15
8.02851e-06
-6.41758e-15
8.72664e-06
-7.15711e-15
9.42478e-06
6.81233e-15
1.01229e-05
6.98464e-15
1.0821e-05
-9.06222e-15
1.15192e-05
6.76214e-15
1.22173e-05
-2.88852e-14
1.29154e-05
-1.22314e-14
1.36136e-05
4.80691e-15
1.43117e-05
2.50298e-14
1.50098e-05
3.8658e-15
1.5708e-05
3.61088e-15
1.64061e-05
-2.04809e-14
1.71042e-05
-2.17575e-14
1.78024e-05
3.47335e-15
1.85005e-05
2.90517e-14
1.91986e-05
-1.65677e-15
1.98967e-05
2.05949e-05
6.21615e-15
4.53785e-06
-3.87881e-15
5.23599e-06
1.54228e-14
5.93412e-06
-7.0648e-15
6.63225e-06
-2.20993e-15
7.33038e-06
1.43036e-15
8.02851e-06
-5.49193e-15
8.72664e-06
1.32281e-14
9.42478e-06
6.04869e-15
1.01229e-05
-1.74482e-14
1.0821e-05
2.0889e-14
1.15192e-05
-2.14435e-14
1.22173e-05
1.91391e-14
1.29154e-05
-7.31459e-15
1.36136e-05
3.84891e-14
1.43117e-05
-1.29193e-14
1.50098e-05
-1.87801e-15
1.5708e-05
5.72144e-15
1.64061e-05
-7.58266e-15
1.71042e-05
2.76645e-14
1.78024e-05
1.41038e-14
1.85005e-05
-5.31355e-14
1.91986e-05
3.90917e-14
1.98967e-05
2.05949e-05
-1.49818e-15
4.53785e-06
1.08973e-14
5.23599e-06
-6.59864e-15
5.93412e-06
7.26563e-15
6.63225e-06
6.17506e-15
7.33038e-06
2.49041e-15
8.02851e-06
-9.62825e-16
8.72664e-06
-4.36416e-15
9.42478e-06
-8.89829e-15
1.01229e-05
1.38642e-14
1.0821e-05
1.06913e-14
1.15192e-05
6.2529e-15
1.22173e-05
-1.25446e-16
1.29154e-05
-3.43805e-15
1.36136e-05
-1.10411e-14
1.43117e-05
-1.77629e-14
1.50098e-05
1.7683e-14
1.5708e-05
9.96164e-15
1.64061e-05
3.33028e-15
1.71042e-05
-3.29616e-14
1.78024e-05
-1.04163e-14
1.85005e-05
3.00761e-14
1.91986e-05
-5.99896e-14
1.98967e-05
2.05949e-05
5.17073e-15
4.53785e-06
-7.45508e-15
5.23599e-06
-7.55895e-16
5.93412e-06
6.83983e-15
6.63225e-06
-9.97317e-15
7.33038e-06
-1.6631e-15
8.02851e-06
9.21981e-15
8.72664e-06
-1.34571e-14
9.42478e-06
2.32236e-14
1.01229e-05
1.04732e-14
1.0821e-05
-1.72696e-14
1.15192e-05
-3.02358e-15
1.22173e-05
1.13992e-14
1.29154e-05
-1.98156e-14
1.36136e-05
-4.67602e-15
1.43117e-05
5.03099e-14
1.50098e-05
-2.40418e-14
1.5708e-05
-6.6524e-15
1.64061e-05
1.42638e-14
1.71042e-05
1.65202e-15
1.78024e-05
-6.80333e-15
1.85005e-05
1.44517e-14
1.91986e-05
5.07629e-14
1.98967e-05
2.05949e-05
-6.1969e-15
4.53785e-06
2.88266e-17
5.23599e-06
1.15119e-14
5.93412e-06
-2.06254e-14
6.63225e-06
5.36733e-15
7.33038e-06
1.22248e-15
8.02851e-06
-4.50276e-17
8.72664e-06
1.23956e-14
9.42478e-06
-1.32241e-14
1.01229e-05
-1.88933e-14
1.0821e-05
-4.96091e-15
1.15192e-05
-7.15061e-15
1.22173e-05
-1.48856e-14
1.29154e-05
3.53426e-14
1.36136e-05
3.22146e-18
1.43117e-05
-4.31336e-14
1.50098e-05
1.35692e-14
1.5708e-05
-2.82544e-14
1.64061e-05
2.45896e-15
1.71042e-05
-1.02367e-14
1.78024e-05
2.38087e-14
1.85005e-05
1.38794e-14
1.91986e-05
-4.55571e-14
1.98967e-05
2.05949e-05
-1.90627e-15
4.53785e-06
1.13114e-15
5.23599e-06
-2.16616e-14
5.93412e-06
9.62521e-15
6.63225e-06
1.51379e-14
7.33038e-06
-1.40649e-14
8.02851e-06
8.09449e-15
8.72664e-06
-2.69577e-14
9.42478e-06
-1.96418e-15
1.01229e-05
2.97181e-14
1.0821e-05
-1.17435e-14
1.15192e-05
1.98695e-14
1.22173e-05
-2.74429e-14
1.29154e-05
-2.06111e-14
1.36136e-05
1.60449e-14
1.43117e-05
-4.61021e-15
1.50098e-05
4.69802e-15
1.5708e-05
4.79702e-14
1.64061e-05
-1.37351e-14
1.71042e-05
3.2378e-14
1.78024e-05
-3.51795e-14
1.85005e-05
-2.49028e-14
1.91986e-05
7.19203e-14
1.98967e-05
2.05949e-05
1.90678e-15
4.53785e-06
-1.13007e-15
5.23599e-06
2.16625e-14
5.93412e-06
-9.62311e-15
6.63225e-06
-1.51362e-14
7.33038e-06
1.40665e-14
8.02851e-06
-8.0922e-15
8.72664e-06
2.69602e-14
9.42478e-06
1.96668e-15
1.01229e-05
-2.97149e-14
1.0821e-05
1.17475e-14
1.15192e-05
-1.98658e-14
1.22173e-05
2.74464e-14
1.29154e-05
2.06167e-14
1.36136e-05
-1.60372e-14
1.43117e-05
4.61572e-15
1.50098e-05
-4.6879e-15
1.5708e-05
-4.79676e-14
1.64061e-05
1.37413e-14
1.71042e-05
-3.23688e-14
1.78024e-05
3.51905e-14
1.85005e-05
2.49092e-14
1.91986e-05
-7.1912e-14
1.98967e-05
2.05949e-05
6.19748e-15
4.53785e-06
-2.82557e-17
5.23599e-06
-1.15111e-14
5.93412e-06
2.06264e-14
6.63225e-06
-5.36598e-15
7.33038e-06
-1.22084e-15
8.02851e-06
4.72612e-17
8.72664e-06
-1.23921e-14
9.42478e-06
1.32271e-14
1.01229e-05
1.88965e-14
1.0821e-05
4.9668e-15
1.15192e-05
7.15501e-15
1.22173e-05
1.4888e-14
1.29154e-05
-3.53377e-14
1.36136e-05
4.42007e-18
1.43117e-05
4.31406e-14
1.50098e-05
-1.35599e-14
1.5708e-05
2.82602e-14
1.64061e-05
-2.45123e-15
1.71042e-05
1.02458e-14
1.78024e-05
-2.3798e-14
1.85005e-05
-1.38699e-14
1.91986e-05
4.55663e-14
1.98967e-05
2.05949e-05
-5.17006e-15
4.53785e-06
7.45596e-15
5.23599e-06
7.57266e-16
5.93412e-06
-6.8394e-15
6.63225e-06
9.97512e-15
7.33038e-06
1.66578e-15
8.02851e-06
-9.21824e-15
8.72664e-06
1.34615e-14
9.42478e-06
-2.32196e-14
1.01229e-05
-1.04719e-14
1.0821e-05
1.72747e-14
1.15192e-05
3.02906e-15
1.22173e-05
-1.13957e-14
1.29154e-05
1.98194e-14
1.36136e-05
4.68153e-15
1.43117e-05
-5.03025e-14
1.50098e-05
2.40471e-14
1.5708e-05