/*--------------------------------*- C++ -*----------------------------------*\
  =========                 |
  \\      /  F ield         | OpenFOAM: The Open Source CFD Toolbox
   \\    /   O peration     | Website:  https://openfoam.org
    \\  /    A nd           | Version:  11
     \\/     M anipulation  |
\*---------------------------------------------------------------------------*/
FoamFile
{
    format      ascii;
    class       volScalarField;
    location    "1.9";
    object      p;
}
// * * * * * * * * * * * * * * * * * * * * * * * * * * * * * * * * * * * * * //

dimensions      [0 2 -2 0 0 0 0];

internalField   nonuniform List<scalar> 
2880
(
1.14656
1.14794
1.16647
1.21579
1.21324
1.40844
1.14788
1.14994
1.16509
1.20216
1.17807
1.28719
1.14889
1.15227
1.16342
1.19076
1.16144
1.20548
1.14898
1.15299
1.16054
1.17878
1.14684
1.14734
1.14847
1.15222
1.15666
1.16667
1.13454
1.11367
1.14757
1.15071
1.15231
1.15543
1.12422
1.09518
1.14632
1.14889
1.14779
1.14548
1.11553
1.08387
1.14476
1.1469
1.14331
1.13675
1.10796
1.0759
1.14302
1.14487
1.13899
1.12909
1.10109
1.06945
1.14121
1.14289
1.13496
1.12231
1.09463
1.06344
1.13946
1.14111
1.1313
1.11628
1.08834
1.05715
1.13785
1.13963
1.12809
1.11091
1.08206
1.05015
1.13649
1.13839
1.12539
1.10618
1.07571
1.04214
1.13541
1.13752
1.12322
1.10209
1.06924
1.03292
1.13458
1.13698
1.1216
1.09867
1.06263
1.02238
1.134
1.13669
1.12047
1.09598
1.05602
1.01061
1.13362
1.1365
1.11979
1.09415
1.0497
0.998156
1.13337
1.1363
1.11952
1.09342
1.0442
0.985813
1.13317
1.13601
1.11972
1.09418
1.03993
0.970725
1.13295
1.13568
1.12066
1.09705
1.03806
0.957606
1.13271
1.13569
1.12295
1.10301
1.04021
0.949404
1.13263
1.13668
1.12721
1.11273
1.04919
0.95472
1.13304
1.13867
1.13262
1.12408
1.06894
0.991554
1.13368
1.14014
1.13548
1.13043
1.10483
1.07216
0.552767
0.612149
0.58563
0.586036
0.577431
0.563611
0.547245
0.531206
0.517016
0.505173
0.495422
0.487335
0.480654
0.475235
0.470931
0.46756
0.464919
0.46282
0.461031
0.459229
0.457684
0.45903
0.466384
0.464714
0.715851
0.709526
0.661885
0.644019
0.623988
0.602162
0.579946
0.55955
0.542095
0.527772
0.516091
0.506472
0.498586
0.492229
0.487209
0.483296
0.480243
0.477825
0.475803
0.4739
0.472391
0.473482
0.47942
0.477446
0.815331
0.784084
0.725931
0.695051
0.665916
0.637275
0.60992
0.585624
0.565205
0.548601
0.535125
0.524073
0.515052
0.507813
0.50212
0.497696
0.494248
0.491517
0.48926
0.487244
0.485728
0.486492
0.491051
0.48904
0.883114
0.839014
0.777338
0.73813
0.702307
0.668226
0.636591
0.608958
0.585957
0.56733
0.552236
0.539881
0.529825
0.521778
0.515466
0.510569
0.506751
0.50372
0.501233
0.499093
0.497521
0.49788
0.501164
0.499427
0.929908
0.879588
0.817704
0.773424
0.732904
0.694666
0.659607
0.629228
0.604055
0.583691
0.567182
0.553677
0.542701
0.533935
0.527069
0.521746
0.517591
0.514284
0.511584
0.509328
0.507675
0.507603
0.509796
0.508584
0.961333
0.909314
0.848749
0.801515
0.757805
0.716501
0.678798
0.646233
0.619293
0.597484
0.579771
0.565279
0.55351
0.544121
0.536772
0.531076
0.526624
0.523074
0.520189
0.517833
0.516116
0.515688
0.516968
0.516138
0.982198
0.930594
0.87191
0.823073
0.777276
0.733786
0.694109
0.659861
0.63153
0.608555
0.58985
0.574538
0.562106
0.552192
0.544435
0.538421
0.533714
0.529955
0.526912
0.524472
0.5227
0.521983
0.522527
0.522009
0.99548
0.945072
0.88833
0.838729
0.791628
0.746641
0.705541
0.670039
0.640649
0.616767
0.59728
0.581315
0.568354
0.55802
0.549934
0.54366
0.538744
0.534814
0.531642
0.529131
0.527312
0.526371
0.52637
0.526092
1.00294
0.953876
0.898881
0.849009
0.801151
0.755191
0.713118
0.676732
0.646581
0.622033
0.601965
0.585517
0.572164
0.561515
0.553177
0.546702
0.541623
0.53756
0.534288
0.531722
0.529862
0.528763
0.528416
0.528309
1.00567
0.957747
0.904183
0.85431
0.806082
0.759572
0.716913
0.679973
0.649333
0.624349
0.603895
0.587121
0.573498
0.562628
0.554111
0.547489
0.542289
0.538129
0.534785
0.532171
0.530273
0.529102
0.528616
0.528584
1.0043
0.957144
0.904631
0.854908
0.806607
0.759905
0.717002
0.679803
0.648916
0.623701
0.603036
0.586082
0.572311
0.561314
0.552686
0.545967
0.540688
0.536469
0.533082
0.530434
0.528506
0.527333
0.526922
0.526891
0.999124
0.952262
0.900403
0.85093
0.802802
0.756221
0.713373
0.676175
0.645262
0.620009
0.599309
0.58233
0.568535
0.557511
0.548849
0.542096
0.536789
0.532554
0.529158
0.526489
0.524537
0.523438
0.523309
0.523197
0.99015
0.943057
0.891466
0.842329
0.794603
0.74844
0.705938
0.669005
0.638293
0.613208
0.592662
0.57582
0.56214
0.551201
0.542594
0.535874
0.530593
0.526386
0.523011
0.520336
0.518368
0.517415
0.517767
0.517496
0.977101
0.929238
0.877589
0.828909
0.781858
0.736443
0.694612
0.658235
0.627975
0.603283
0.583092
0.56656
0.553136
0.542396
0.533935
0.52732
0.522123
0.517988
0.514669
0.512005
0.51003
0.509288
0.510306
0.5098
0.959402
0.910264
0.858319
0.810332
0.764326
0.720068
0.679294
0.643807
0.614283
0.590227
0.570603
0.55456
0.541543
0.531124
0.522907
0.516475
0.511423
0.507411
0.504184
0.50155
0.499577
0.499106
0.500953
0.500148
0.936071
0.885285
0.832958
0.786088
0.741651
0.699076
0.659827
0.62563
0.597169
0.574022
0.555199
0.539842
0.527393
0.51743
0.509565
0.503404
0.498565
0.494729
0.491632
0.489052
0.487093
0.486943
0.489758
0.488602
0.905414
0.853061
0.800536
0.755496
0.713377
0.673167
0.636025
0.603598
0.576588
0.554666
0.536905
0.522449
0.510745
0.501382
0.493988
0.488192
0.483641
0.480038
0.477117
0.474617
0.47269
0.472903
0.4768
0.475254
0.864998
0.811957
0.759787
0.717708
0.678964
0.642007
0.607694
0.577612
0.552514
0.532178
0.515768
0.502449
0.491682
0.483076
0.476279
0.47095
0.466768
0.463461
0.460762
0.458378
0.456507
0.457123
0.462196
0.460199
0.813993
0.760103
0.709103
0.671723
0.637824
0.605264
0.574663
0.547608
0.524953
0.506616
0.491875
0.479946
0.470321
0.462635
0.456569
0.451814
0.448087
0.445143
0.442718
0.440489
0.4387
0.439747
0.44607
0.443601
0.745693
0.694582
0.646491
0.61644
0.589381
0.562657
0.536822
0.513582
0.493971
0.478086
0.465354
0.455083
0.446813
0.440218
0.435019
0.430948
0.42776
0.425243
0.423144
0.421107
0.419408
0.420853
0.428463
0.425712
0.657857
0.608629
0.56939
0.55077
0.533173
0.514036
0.494184
0.475639
0.459718
0.446764
0.436396
0.428059
0.421358
0.416025
0.411828
0.408546
0.40598
0.403953
0.402226
0.400417
0.398818
0.400622
0.409493
0.406611
0.535464
0.498973
0.475328
0.473828
0.46901
0.459484
0.446947
0.434026
0.422461
0.412916
0.405267
0.399131
0.394207
0.390297
0.38723
0.38484
0.382975
0.381499
0.380193
0.378654
0.377182
0.379326
0.3894
0.38646
0.336304
0.357863
0.361655
0.385299
0.397204
0.39946
0.395576
0.389177
0.382601
0.376917
0.372314
0.368623
0.365663
0.363321
0.361501
0.360095
0.359004
0.358137
0.357299
0.356074
0.354769
0.357244
0.36843
0.365479
0.0173636
0.184938
0.231719
0.28672
0.319002
0.334971
0.340884
0.341761
0.340696
0.339248
0.337966
0.33692
0.336077
0.335426
0.334951
0.334608
0.334355
0.334147
0.33382
0.332956
0.331863
0.334664
0.346845
0.343924
-0.841815
-0.898099
-0.988767
-1.02185
-1.03916
-1.1368
-0.853185
-0.909529
-0.99542
-1.03062
-1.03116
-1.08426
-0.864311
-0.921081
-1.00385
-1.04303
-1.03263
-1.06404
-0.876084
-0.933291
-1.01472
-1.05739
-1.04325
-1.06239
-0.889552
-0.94633
-1.02782
-1.07134
-1.05894
-1.06729
-0.903124
-0.960116
-1.04107
-1.08402
-1.07539
-1.07427
-0.915693
-0.973836
-1.05239
-1.09469
-1.08948
-1.08045
-0.926865
-0.985652
-1.06096
-1.10241
-1.09966
-1.08365
-0.935798
-0.994633
-1.0664
-1.10647
-1.10481
-1.08223
-0.941814
-1.00022
-1.06846
-1.1064
-1.10417
-1.07514
-0.944421
-1.00207
-1.06699
-1.10192
-1.0974
-1.06189
-0.943306
-1.00007
-1.06198
-1.09297
-1.08458
-1.04241
-0.938323
-0.994311
-1.05348
-1.07968
-1.06622
-1.01695
-0.929501
-0.985444
-1.0417
-1.06241
-1.0429
-0.986133
-0.917323
-0.973905
-1.02697
-1.04163
-1.01515
-0.950903
-0.902558
-0.96015
-1.00967
-1.01794
-0.983845
-0.911626
-0.886158
-0.944775
-0.990302
-0.991988
-0.949987
-0.869792
-0.869165
-0.928515
-0.969436
-0.96446
-0.914537
-0.827011
-0.852575
-0.912308
-0.947723
-0.936017
-0.878337
-0.784436
-0.837319
-0.897423
-0.926047
-0.907397
-0.842197
-0.742989
-0.824676
-0.885301
-0.906032
-0.87959
-0.806559
-0.702623
-0.816551
-0.877158
-0.889818
-0.853128
-0.770118
-0.659372
-0.814875
-0.871135
-0.877249
-0.824894
-0.729065
-0.606669
-0.818082
-0.861066
-0.854343
-0.786789
-0.686294
-0.559082
-0.469791
-0.023983
0.0872666
0.182087
0.237018
0.267728
0.284086
0.292689
0.297464
0.300499
0.302722
0.304461
0.305844
0.306973
0.307916
0.3087
0.309337
0.309831
0.310054
0.309593
0.308761
0.311884
0.324919
0.322077
-0.676235
-0.230398
-0.0508394
0.0793955
0.155114
0.20003
0.226718
0.243061
0.253737
0.261333
0.267136
0.271721
0.275385
0.278345
0.280753
0.282706
0.284272
0.285503
0.286307
0.28629
0.285767
0.289202
0.302932
0.300241
-0.755757
-0.382185
-0.166764
-0.0150309
0.0769055
0.134197
0.170363
0.19402
0.210385
0.22244
0.231775
0.239186
0.245129
0.249931
0.253824
0.25697
0.259491
0.261483
0.262894
0.263356
0.263184
0.266913
0.281164
0.278732
-0.810546
-0.489686
-0.261316
-0.0985642
0.00476049
0.0720385
0.116376
0.146601
0.168218
0.184475
0.197184
0.207324
0.215491
0.222109
0.227482
0.231829
0.23532
0.238091
0.24013
0.2411
0.241314
0.245305
0.259893
0.257881
-0.859152
-0.569808
-0.339168
-0.171119
-0.0602095
0.0147024
0.0657617
0.101643
0.127931
0.148013
0.16385
0.176559
0.186851
0.195229
0.202057
0.207601
0.212072
0.215639
0.218326
0.219832
0.220457
0.224656
0.239378
0.238041
-0.897877
-0.630883
-0.402926
-0.233207
-0.117526
-0.0371789
0.0192067
0.0597814
0.0900766
0.113528
0.13218
0.147249
0.15953
0.169588
0.177834
0.18457
0.190035
0.194426
0.197794
0.199871
0.200927
0.20524
0.21985
0.219605
-0.924836
-0.676219
-0.454002
-0.285346
-0.166801
-0.0833577
-0.0228349
0.0214695
0.0550671
0.0813831
0.102491
0.119671
0.133777
0.145417
0.155035
0.162961
0.169454
0.174722
0.178838
0.181563
0.183088
0.187349
0.201451
0.203067
-0.940824
-0.70793
-0.493411
-0.327798
-0.209122
-0.122905
-0.0599656
-0.012983
0.0231789
0.0518295
0.0749994
0.0940076
0.109745
0.122849
0.133785
0.142904
0.150478
0.156722
0.161731
0.165298
0.167449
0.171389
0.184107
0.18923
-0.947137
-0.72778
-0.522133
-0.361048
-0.243719
-0.156633
-0.0922501
-0.0434384
-0.00539673
0.0250176
0.0498276
0.0703511
0.0874926
0.101905
0.114074
0.124373
0.133091
0.140466
0.146639
0.151497
0.154894
0.158714
0.168794
0.180398
-0.944583
-0.737081
-0.541067
-0.385836
-0.270772
-0.184405
-0.119622
-0.069855
-0.0306381
0.00100305
0.0270218
0.0487151
0.066986
0.0824936
0.0957384
0.107113
0.116936
0.125477
0.132918
0.139215
0.144338
0.150172
0.161221
0.165443
-0.933626
-0.736796
-0.550951
-0.402676
-0.290664
-0.206373
-0.142136
-0.0922251
-0.0525057
-0.0201862
0.00658954
0.0290749
0.0481504
0.0644628
0.0785055
0.0906667
0.101258
0.110521
0.118561
0.125224
0.130606
0.137419
0.149578
0.142399
-0.914705
-0.72768
-0.552356
-0.412
-0.303901
-0.222745
-0.159916
-0.1106
-0.0710141
-0.038554
-0.0114746
0.0114125
0.0309448
0.047737
0.0622562
0.0748651
0.0858486
0.095416
0.103627
0.1103
0.115678
0.122826
0.135135
0.124532
-0.888388
-0.710432
-0.545725
-0.414079
-0.311401
-0.233665
-0.173106
-0.12509
-0.0862276
-0.0541299
-0.0271781
-0.00426497
0.0153905
0.0323592
0.0470728
0.0598647
0.0709974
0.080667
0.0889382
0.0956751
0.101228
0.108697
0.121157
0.11028
-0.855449
-0.685851
-0.531798
-0.409226
-0.313449
-0.239628
-0.181978
-0.135868
-0.0982522
-0.0669686
-0.0405368
-0.0179402
0.0015375
0.0184182
0.0330956
0.0458762
0.0570073
0.066686
0.0750056
0.0819016
0.0877681
0.0956043
0.108301
0.0981942
-0.816788
-0.654785
-0.511353
-0.398253
-0.309988
-0.241059
-0.186834
-0.143144
-0.107229
-0.0771532
-0.0515848
-0.0296042
-0.0105646
0.00600474
0.0204597
0.0330821
0.044108
0.0537419
0.0621201
0.0692269
0.0754425
0.0836625
0.0966689
0.0878142
-0.773629
-0.618087
-0.485174
-0.381921
-0.301523
-0.238299
-0.188019
-0.147177
-0.11334
-0.0848026
-0.0603845
-0.03927
-0.0208844
-0.0048093
0.00927377
0.0216222
0.0324613
0.0420056
0.050429
0.0577338
0.0642871
0.0728818
0.0862337
0.0789069
-0.726831
-0.576869
-0.454248
-0.361066
-0.288859
-0.231774
-0.185891
-0.148264
-0.116813
-0.0900762
-0.0670352
-0.0469835
-0.0294216
-0.0139846
-0.000392277
0.0115873
0.0221663
0.031566
0.0399792
0.047425
0.0542702
0.0631826
0.0768634
0.0712362
-0.677505
-0.532574
-0.41989
-0.336725
-0.272838
-0.222109
-0.180916
-0.146768
-0.117928
-0.0931812
-0.07168
-0.052832
-0.0362156
-0.0215217
-0.00851018
0.00302242
0.0132711
0.0224562
0.0307751
0.0382701
0.0453131
0.0544323
0.0683632
0.064541
-0.62632
-0.486263
-0.383519
-0.310122
-0.254425
-0.210056
-0.17366
-0.143122
-0.117019
-0.094374
-0.0745088
-0.0569474
-0.0413494
-0.0274633
-0.015092
-0.00406502
0.00578954
0.0146808
0.0228037
0.0302294
0.0373295
0.0464838
0.060496
0.0585288
-0.573056
-0.438177
-0.34632
-0.282527
-0.2347
-0.196465
-0.164771
-0.137824
-0.114475
-0.0939581
-0.0757561
-0.0595064
-0.0449496
-0.0318934
-0.0201875
-0.00969968
-0.000287594
0.00823577
0.016057
0.0232785
0.0302565
0.0392018
0.053004
0.0528786
-0.51719
-0.388065
-0.309058
-0.255051
-0.21473
-0.182237
-0.154965
-0.131435
-0.110733
-0.0922804
-0.0756971
-0.0607254
-0.0471827
-0.0349347
-0.0238812
-0.0139374
-0.00499383
0.00310954
0.0105412
0.01742
0.0240816
0.0325108
0.0456485
0.0472492
-0.459621
-0.336173
-0.27237
-0.228602
-0.195448
-0.168232
-0.144975
-0.124551
-0.106274
-0.089724
-0.0746406
-0.060854
-0.04825
-0.0367434
-0.0262761
-0.0168395
-0.00836847
-0.000707999
0.00627154
0.0126941
0.0188623
0.0264404
0.0382839
0.041316
-0.402577
-0.283673
-0.237695
-0.20435
-0.177757
-0.15525
-0.135502
-0.117765
-0.101586
-0.0866907
-0.0729153
-0.060163
-0.0483763
-0.0375111
-0.0276109
-0.0186992
-0.0105949
-0.0032897
0.0032384
0.00914722
0.0146938
0.0211499
0.0309914
0.034809
-0.337311
-0.233224
-0.207347
-0.183772
-0.162792
-0.144174
-0.127269
-0.111685
-0.0971779
-0.0835978
-0.0708606
-0.0589322
-0.0478127
-0.0375111
-0.0280615
-0.0194653
-0.011774
-0.00485971
0.00136827
0.00682087
0.0117044
0.0168723
0.0241586
0.027996
-0.14311
-0.134715
-0.132759
-0.131029
-0.135044
-0.139118
-0.144266
-0.136324
-0.135857
-0.135557
-0.140758
-0.144774
-0.146616
-0.138666
-0.139815
-0.140711
-0.14722
-0.151865
-0.148494
-0.140829
-0.143235
-0.144897
-0.151612
-0.156805
-0.149536
-0.14251
-0.14587
-0.148006
-0.154249
-0.159342
-0.150334
-0.143901
-0.148002
-0.150424
-0.155866
-0.160349
-0.1504
-0.14527
-0.149919
-0.152467
-0.156981
-0.160507
-0.150108
-0.147201
-0.151812
-0.154303
-0.157785
-0.16017
-0.150706
-0.149965
-0.153784
-0.156042
-0.15844
-0.159589
-0.15201
-0.152721
-0.155788
-0.157757
-0.15908
-0.158961
-0.153261
-0.155227
-0.157768
-0.159501
-0.159813
-0.158435
-0.154395
-0.157484
-0.159699
-0.161321
-0.160739
-0.158156
-0.15543
-0.159499
-0.161565
-0.163273
-0.16197
-0.158288
-0.156375
-0.161257
-0.163352
-0.165417
-0.163603
-0.159019
-0.157243
-0.162748
-0.165054
-0.167805
-0.165704
-0.160464
-0.158075
-0.163966
-0.166669
-0.170479
-0.168356
-0.162864
-0.158785
-0.164904
-0.168202
-0.173472
-0.171662
-0.166613
-0.158629
-0.165585
-0.169656
-0.1768
-0.175692
-0.172136
-0.157606
-0.166193
-0.171045
-0.180452
-0.180442
-0.179979
-0.157333
-0.166908
-0.172367
-0.184336
-0.185764
-0.190857
-0.158048
-0.16775
-0.173513
-0.188154
-0.191163
-0.205775
-0.159178
-0.168667
-0.174269
-0.191217
-0.195648
-0.225923
-0.160275
-0.169463
-0.174442
-0.192585
-0.198431
-0.250837
-0.160758
-0.169939
-0.1742
-0.192258
-0.200618
-0.27371
-0.198668
-0.193411
-0.184822
-0.1682
-0.151572
-0.135893
-0.12107
-0.107005
-0.0936497
-0.08095
-0.0688797
-0.0574549
-0.0467316
-0.0367594
-0.0275516
-0.0191706
-0.0117149
-0.00521261
0.000400743
0.00531832
0.00949522
0.0131452
0.0178864
0.022968
-0.180257
-0.179123
-0.172506
-0.15912
-0.145143
-0.131274
-0.117723
-0.104558
-0.0918137
-0.079511
-0.0676721
-0.0563572
-0.0456342
-0.0356102
-0.0264413
-0.0181668
-0.0107881
-0.00438969
0.00100471
0.00539781
0.00872818
0.0113946
0.0139195
0.0176729
-0.176981
-0.176036
-0.168225
-0.156288
-0.143731
-0.13093
-0.118032
-0.105215
-0.0926166
-0.0802548
-0.0682037
-0.0566134
-0.0456461
-0.0354363
-0.0260053
-0.0174326
-0.00989635
-0.00344706
0.00190501
0.00618997
0.00931136
0.0115833
0.0124505
0.0139775
-0.174546
-0.174711
-0.167714
-0.15734
-0.145987
-0.134109
-0.121804
-0.109248
-0.0966038
-0.083958
-0.0714177
-0.0591981
-0.047569
-0.0367383
-0.0268119
-0.0178645
-0.0100284
-0.00345246
0.00178074
0.00574759
0.00844475
0.0104629
0.0107933
0.0116519
-0.171989
-0.172849
-0.167597
-0.159057
-0.149221
-0.138549
-0.127205
-0.115328
-0.102975
-0.090329
-0.0776035
-0.0650314
-0.0528586
-0.041321
-0.0306211
-0.020974
-0.0126042
-0.00564216
-0.000113375
0.00403146
0.00684111
0.00873074
0.00956302
0.0100061
-0.16927
-0.170074
-0.166112
-0.159182
-0.150858
-0.141574
-0.131513
-0.12072
-0.10924
-0.097275
-0.0850732
-0.0728285
-0.0607247
-0.0490095
-0.0379429
-0.0277591
-0.0186878
-0.0109246
-0.00459488
0.00024833
0.00359516
0.00561134
0.00639086
0.00526636
-0.166395
-0.166494
-0.162925
-0.156937
-0.149679
-0.141536
-0.132648
-0.123032
-0.112742
-0.101936
-0.0907742
-0.079386
-0.0679252
-0.0565949
-0.045618
-0.0352036
-0.025584
-0.0170229
-0.00978832
-0.0040546
5.95674e-05
0.00231357
0.00220237
-3.99781e-05
-0.163422
-0.162339
-0.158365
-0.152536
-0.145694
-0.138185
-0.130125
-0.121531
-0.112455
-0.102988
-0.0932044
-0.0831807
-0.0730066
-0.0627593
-0.0526268
-0.0427966
-0.033445
-0.0247948
-0.0170905
-0.0105061
-0.0052479
-0.00169917
-0.000222125
-0.00020179
-0.160426
-0.157811
-0.152842
-0.146499
-0.139457
-0.132064
-0.124452
-0.116667
-0.108765
-0.100797
-0.0927734
-0.084742
-0.0767688
-0.0689345
-0.0613754
-0.0541033
-0.0468848
-0.0398599
-0.0329399
-0.0259872
-0.018851
-0.0108813
-0.000373439
0.00924749
-0.157466
-0.153068
-0.146674
-0.139339
-0.13167
-0.124045
-0.116651
-0.109602
-0.102906
-0.096619
-0.0907584
-0.085359
-0.0803757
-0.0756992
-0.0710943
-0.0660507
-0.0604256
-0.053944
-0.0462204
-0.0370193
-0.026221
-0.0131321
0.00325307
0.016575
-0.154614
-0.148238
-0.140108
-0.131543
-0.123073
-0.115016
-0.107563
-0.100758
-0.0948129
-0.0898601
-0.0859447
-0.0829631
-0.0807386
-0.0789891
-0.077302
-0.0753074
-0.0726365
-0.0685886
-0.0627594
-0.0548153
-0.0448195
-0.0324819
-0.018496
-0.00519716
-0.151916
-0.143399
-0.133287
-0.123157
-0.113422
-0.10448
-0.0966002
-0.0900312
-0.0850218
-0.0815911
-0.0797664
-0.0794446
-0.0804035
-0.0822984
-0.084676
-0.0870203
-0.08841
-0.0880774
-0.0852417
-0.0792302
-0.0691647
-0.055425
-0.0394932
-0.0204953
-0.149377
-0.138568
-0.126146
-0.114147
-0.102982
-0.0931332
-0.0849694
-0.0788156
-0.074761
-0.0729019
-0.0732513
-0.0756868
-0.0799253
-0.085506
-0.091786
-0.0979302
-0.10288
-0.105615
-0.104945
-0.0997415
-0.0891673
-0.0729772
-0.0517838
-0.0240218
-0.146999
-0.133759
-0.118788
-0.104827
-0.0922444
-0.0815586
-0.0731467
-0.0672969
-0.0641628
-0.0638195
-0.0662219
-0.0711659
-0.0782525
-0.0868591
-0.0961252
-0.105042
-0.112423
-0.116962
-0.117338
-0.112159
-0.100418
-0.0814925
-0.0553311
-0.0201255
-0.144871
-0.128976
-0.11122
-0.0952083
-0.081181
-0.0696661
-0.0610207
-0.0555016
-0.053246
-0.0542654
-0.0584056
-0.0653083
-0.0743983
-0.0849301
-0.0959194
-0.10618
-0.114382
-0.119022
-0.118703
-0.112285
-0.0990921
-0.078301
-0.0502142
-0.012875
-0.143005
-0.124217
-0.103468
-0.0853675
-0.069925
-0.057634
-0.0487968
-0.0436021
-0.0421003
-0.04417
-0.049512
-0.0576843
-0.0679572
-0.0793377
-0.0906687
-0.100594
-0.107779
-0.11099
-0.109186
-0.101499
-0.0874606
-0.0661386
-0.0390951
-0.00491601
-0.141327
-0.119486
-0.0956033
-0.0754949
-0.0587658
-0.0458036
-0.0368213
-0.0318838
-0.0309262
-0.033789
-0.0399834
-0.0487293
-0.059084
-0.0699449
-0.0801719
-0.0885857
-0.094006
-0.0954646
-0.0919496
-0.0830759
-0.0691055
-0.049006
-0.0250677
0.00238243
-0.139775
-0.114796
-0.0877513
-0.065855
-0.048061
-0.0345822
-0.0255077
-0.020884
-0.0204847
-0.0237791
-0.030008
-0.0383164
-0.047821
-0.057382
-0.0657882
-0.0720671
-0.0750285
-0.0744084
-0.0692225
-0.0581288
-0.0424866
-0.0252007
-0.00923281
0.00831735
-0.138211
-0.110135
-0.0800994
-0.0567466
-0.0381981
-0.0244481
-0.0155538
-0.0112094
-0.0109104
-0.0139667
-0.0196948
-0.0271304
-0.0351506
-0.0425788
-0.0483267
-0.0520465
-0.052328
-0.0472077
-0.0387497
-0.02912
-0.0193125
-0.0088815
0.00211045
0.0151819
-0.136311
-0.105556
-0.0728352
-0.0484431
-0.0295499
-0.0158518
-0.00706102
-0.00268437
-0.00218242
-0.00480385
-0.00952012
-0.0152462
-0.0211096
-0.0260762
-0.028862
-0.027778
-0.0239903
-0.018759
-0.0131418
-0.00761606
-0.0007176
0.00776434
0.0167937
0.024134
-0.133649
-0.100996
-0.0660809
-0.0411459
-0.022266
-0.00863411
0.000164706
0.00463882
0.00560373
0.00399665
0.000899154
-0.0026419
-0.00588891
-0.00716308
-0.00556797
-0.00272183
0.0005426
0.00338808
0.00711398
0.0122716
0.0179198
0.0235565
0.0299925
0.0335984
-0.130249
-0.0948409
-0.0597175
-0.0348353
-0.0161355
-0.0026061
0.00625393
0.0111538
0.0129895
0.0127919
0.0116433
0.0107315
0.0115251
0.0133089
0.0158063
0.0179311
0.0198736
0.0228593
0.0269033
0.0309598
0.0343695
0.0377884
0.0434716
0.0443139
-0.123629
-0.0853561
-0.0532274
-0.0292508
-0.0108802
0.00259506
0.0117422
0.0173674
0.0204649
0.0221334
0.0236924
0.0260147
0.0288166
0.031634
0.0332
0.0353513
0.0386707
0.0421413
0.0451852
0.0475488
0.0493205
0.0519301
0.0585767
0.0572485
-0.108582
-0.0714116
-0.0463033
-0.0240999
-0.00613118
0.00746455
0.0171757
0.0239458
0.0286786
0.0326871
0.0367843
0.0410364
0.044381
0.0470528
0.0499381
0.0533005
0.0565831
0.0593831
0.0615244
0.0630189
0.0641687
0.0669814
0.0753204
0.0716669
-0.0949826
-0.0989378
-0.0836215
-0.0463941
0.006329
0.0861524
-0.0896535
-0.0973767
-0.0852271
-0.0585293
-0.0236868
0.018852
-0.0798653
-0.0948644
-0.0857776
-0.0683188
-0.0462895
-0.0244149
-0.0799894
-0.0943273
-0.0877141
-0.0771548
-0.062564
-0.0502446
-0.0896295
-0.0957708
-0.0915432
-0.0852303
-0.0741566
-0.0650381
-0.0964125
-0.0980379
-0.0960727
-0.0922088
-0.0827923
-0.0738892
-0.099421
-0.100413
-0.100518
-0.0979464
-0.0891581
-0.0792874
-0.102198
-0.102796
-0.104554
-0.102521
-0.0936342
-0.0823403
-0.105348
-0.105136
-0.108072
-0.106088
-0.0965892
-0.0837129
-0.108507
-0.107285
-0.111047
-0.108829
-0.0983563
-0.0838132
-0.111272
-0.109114
-0.113507
-0.110926
-0.0992115
-0.0829578
-0.113408
-0.110547
-0.11551
-0.112572
-0.0993981
-0.0814356
-0.114813
-0.111553
-0.117114
-0.113965
-0.0992071
-0.0793816
-0.115472
-0.112063
-0.118431
-0.115326
-0.0988684
-0.0768065
-0.115402
-0.11203
-0.119572
-0.116921
-0.0985652
-0.0741166
-0.11461
-0.11147
-0.120637
-0.118998
-0.0985967
-0.0722265
-0.113139
-0.110411
-0.121757
-0.121649
-0.0994174
-0.0720235
-0.111254
-0.109067
-0.12307
-0.125051
-0.101361
-0.074602
-0.112338
-0.108259
-0.124709
-0.12927
-0.104559
-0.0818724
-0.117847
-0.108641
-0.126958
-0.134242
-0.108816
-0.0974258
-0.120578
-0.108985
-0.129363
-0.139848
-0.114241
-0.125756
-0.115438
-0.108182
-0.130987
-0.145765
-0.123146
-0.167973
-0.106659
-0.106469
-0.131688
-0.151108
-0.137113
-0.225502
-0.102385
-0.10551
-0.132706
-0.157309
-0.158382
-0.349109
-0.081473
-0.0601289
-0.0399668
-0.0193539
-0.00152877
0.012482
0.0231704
0.0314485
0.038257
0.0443005
0.050114
0.0545347
0.0584428
0.0625217
0.0663946
0.0698946
0.072924
0.0753433
0.0771017
0.0782683
0.0792219
0.0824942
0.0925191
0.08647
-0.076596
-0.0551888
-0.0354505
-0.0149467
0.003353
0.0181584
0.0301338
0.0400483
0.0487525
0.0564354
0.0626152
0.0679506
0.0730737
0.0777166
0.0818259
0.0853874
0.0883449
0.0906253
0.0922581
0.0933384
0.0943113
0.0981827
0.109789
0.101448
-0.0768998
-0.052825
-0.0315884
-0.0101155
0.00893412
0.0248683
0.0382667
0.0497802
0.059692
0.0681998
0.075379
0.0817431
0.0873875
0.0923497
0.096652
0.100294
0.10326
0.105548
0.107249
0.108445
0.109577
0.114062
0.127024
0.116588
-0.0754159
-0.0504099
-0.0272933
-0.00453945
0.0155499
0.0328111
0.0476056
0.0603319
0.0713151
0.0806479
0.0886228
0.0955133
0.101497
0.106676
0.111118
0.114866
0.117946
0.120396
0.122306
0.123696
0.124984
0.129941
0.143954
0.131822
-0.0726332
-0.0472686
-0.0221199
0.00197178
0.0234224
0.0421076
0.0582009
0.0719809
0.0837226
0.0936824
0.102138
0.109357
0.115549
0.120872
0.12544
0.129327
0.132579
0.135251
0.1374
0.13898
0.140392
0.145678
0.16047
0.147228
-0.0693976
-0.0432611
-0.0160462
0.00964584
0.0326835
0.0527906
0.0700216
0.0846298
0.0969409
0.107289
0.116003
0.123381
0.129674
0.13508
0.139739
0.143748
0.147174
0.150077
0.15247
0.15422
0.155715
0.161181
0.176509
0.162958
-0.0658748
-0.0383853
-0.00897674
0.0186437
0.0433921
0.0648384
0.0830179
0.0982394
0.110913
0.121458
0.130264
0.137674
0.143973
0.149386
0.154077
0.158163
0.161727
0.164829
0.167441
0.169338
0.170869
0.176365
0.191973
0.179201
-0.0620326
-0.0326653
-0.000761846
0.0290526
0.0555486
0.0782134
0.0971543
0.112794
0.125651
0.136233
0.144994
0.152321
0.158528
0.163859
0.168498
0.172577
0.176195
0.179417
0.182196
0.184239
0.185812
0.191177
0.206718
0.196293
-0.057841
-0.0261019
0.00873329
0.040935
0.0691532
0.0928987
0.112425
0.128308
0.141189
0.151669
0.160266
0.167403
0.173415
0.178561
0.183035
0.186985
0.190526
0.193739
0.196592
0.198806
0.200557
0.20563
0.22035
0.215099
-0.0532942
-0.0186215
0.0196343
0.0543438
0.0842218
0.108908
0.128856
0.14482
0.157581
0.167836
0.176159
0.183005
0.188721
0.193569
0.19775
0.201415
0.204685
0.207655
0.210345
0.212605
0.21446
0.218071
0.228826
0.239125
-0.0483378
-0.0100696
0.0320277
0.0693334
0.100798
0.12629
0.146501
0.162392
0.174895
0.184807
0.192758
0.199223
0.204555
0.209012
0.212786
0.216019
0.218811
0.221237
0.223324
0.225003
0.226005
0.225724
0.224506
0.272133
-0.0427911
-0.000286417
0.0459871
0.0859787
0.118962
0.145125
0.165436
0.181094
0.193197
0.202655
0.210144
0.216157
0.221043
0.225059
0.228386
0.231155
0.233462
0.235393
0.236973
0.2379
0.237617
0.23839
0.250748
0.269497
-0.036426
0.0108151
0.061633
0.104414
0.138842
0.165519
0.185748
0.200999
0.212543
0.221438
0.228383
0.233882
0.238284
0.24184
0.244729
0.247077
0.248982
0.250535
0.25171
0.252072
0.251425
0.254094
0.270421
0.277006
-0.0291767
0.0232551
0.0791827
0.124865
0.160613
0.187594
0.207518
0.222157
0.233003
0.241203
0.247514
0.252437
0.256319
0.259404
0.261869
0.263839
0.265414
0.266681
0.267578
0.267632
0.266889
0.27036
0.28768
0.289381
-0.0210431
0.0372821
0.0989325
0.147632
0.184476
0.211497
0.230843
0.244641
0.254598
0.261968
0.267545
0.271823
0.275136
0.277727
0.279765
0.281372
0.282643
0.283653
0.284318
0.284143
0.283281
0.286997
0.304524
0.304012
-0.0119854
0.0535418
0.121297
0.173061
0.210679
0.23737
0.25581
0.268498
0.277353
0.283732
0.288456
0.292001
0.294686
0.296742
0.298334
0.299571
0.300538
0.301299
0.301744
0.301364
0.300365
0.304093
0.321406
0.319727
-0.00177044
0.0727122
0.146952
0.201527
0.239458
0.265362
0.2825
0.293758
0.301262
0.306463
0.310194
0.312901
0.314881
0.31635
0.317457
0.318299
0.318946
0.319443
0.31966
0.319078
0.317942
0.321562
0.338363
0.336071
0.0103208
0.095974
0.17646
0.233417
0.271055
0.295607
0.310964
0.320416
0.326284
0.330096
0.332675
0.334425
0.33561
0.336424
0.337
0.337414
0.337716
0.337931
0.337909
0.337132
0.335871
0.339308
0.355356
0.352768
0.0253793
0.124867
0.210511
0.269199
0.305726
0.328212
0.341211
0.34842
0.352334
0.354523
0.355775
0.356438
0.356731
0.356819
0.35681
0.356758
0.356687
0.356599
0.356327
0.355362
0.353997
0.357201
0.372305
0.369626
0.0440652
0.160856
0.250073
0.309439
0.34371
0.363222
0.373183
0.377658
0.37927
0.379589
0.379336
0.378777
0.378078
0.377366
0.376719
0.376163
0.375692
0.375282
0.374753
0.373611
0.372165
0.375103
0.389111
0.386483
0.0650047
0.205997
0.296481
0.354731
0.385193
0.400591
0.406724
0.407932
0.406884
0.405087
0.403152
0.401244
0.399457
0.397877
0.396545
0.395451
0.394558
0.393813
0.393022
0.391718
0.390214
0.392859
0.405651
0.403173
0.0865929
0.265948
0.352025
0.405763
0.430198
0.440089
0.441529
0.438932
0.434884
0.430749
0.426976
0.423605
0.420652
0.418147
0.41609
0.414434
0.413105
0.412017
0.410966
0.409515
0.407976
0.410305
0.42179
0.419526
0.12476
0.354515
0.420171
0.46272
0.478255
0.481157
0.477084
0.470214
0.46289
0.456244
0.450516
0.4456
0.441421
0.437952
0.435148
0.432917
0.431145
0.429713
0.428407
0.426825
0.425267
0.427261
0.437379
0.435365
0.25427
0.482671
0.501301
0.524061
0.528046
0.522791
0.512636
0.501198
0.49044
0.48119
0.473448
0.466943
0.46151
0.457062
0.453502
0.450695
0.448483
0.446713
0.445161
0.443461
0.441899
0.443552
0.452278
0.450514
)
;

boundaryField
{
    rotor
    {
        type            zeroGradient;
    }
    freestream
    {
        type            freestreamPressure;
        freestreamValue uniform 0;
        supersonic      false;
        value           nonuniform List<scalar> 
96
(
0.42458
0.444605
0.463072
0.47977
0.49454
0.506899
0.516654
0.523612
0.527624
0.528578
0.526434
0.521177
0.512848
0.501538
0.487389
0.470594
0.451394
0.430053
0.406909
0.382388
0.356758
0.330363
0.303587
0.27683
0.250488
0.224938
0.200529
0.177574
0.156347
0.137088
0.120033
0.105519
0.0946002
0.0815584
0.0656337
0.0534217
0.0438138
0.0359473
0.029464
0.0241279
0.0197301
0.0160847
0.0130301
0.0104315
0.00818376
0.00621526
0.00448776
0.00304031
0.00205626
0.00126325
0.00077371
0.000505895
0.000370324
0.000175054
-1.1517e-06
-4.04844e-06
5.11638e-05
4.45171e-05
-0.000148268
-0.00111468
-0.00169378
-0.00153086
-0.00100536
-0.000400636
0.000206327
0.000783472
0.00157297
0.00278367
0.00434536
0.00645193
0.0093951
0.0132418
0.0179377
0.0235439
0.0301434
0.0377903
0.046565
0.0565684
0.0679215
0.0808189
0.0957332
0.114525
0.139546
0.147282
0.16095
0.178032
0.197205
0.217802
0.239512
0.262092
0.285329
0.309001
0.332867
0.35666
0.380092
0.402862
)
;
    }
    frontAndBack
    {
        type            empty;
    }
}


// ************************************************************************* //
