/*--------------------------------*- C++ -*----------------------------------*\
  =========                 |
  \\      /  F ield         | OpenFOAM: The Open Source CFD Toolbox
   \\    /   O peration     | Website:  https://openfoam.org
    \\  /    A nd           | Version:  11
     \\/     M anipulation  |
\*---------------------------------------------------------------------------*/
FoamFile
{
    format      ascii;
    class       volScalarField;
    location    "1.24";
    object      epsilon;
}
// * * * * * * * * * * * * * * * * * * * * * * * * * * * * * * * * * * * * * //

dimensions      [0 2 -3 0 0 0 0];

internalField   nonuniform List<scalar> 
2880
(
2.38882
3.73608
4.48995
4.18709
3.31786
2.92386
0.951137
1.86068
2.27455
2.28677
2.04344
2.3311
1.2384
1.69987
1.95976
1.96298
1.85829
2.10416
1.66027
1.77076
1.9215
1.9144
1.85096
2.04475
2.03751
1.88383
1.95697
1.94838
1.91749
2.07095
2.36565
1.98328
2.01507
2.01367
2.01376
2.15034
2.64526
2.05909
2.07282
2.08799
2.11808
2.25919
2.87869
2.11168
2.12356
2.16126
2.22152
2.37805
3.06898
2.14459
2.16606
2.22861
2.31714
2.49221
3.21991
2.16405
2.20137
2.28714
2.39891
2.59086
3.33662
2.176
2.23098
2.33528
2.46188
2.66335
3.41501
2.18407
2.25612
2.37297
2.50403
2.70181
3.43374
2.18753
2.27833
2.40152
2.52531
2.70778
3.4016
2.18647
2.29959
2.42357
2.52974
2.68548
3.30809
2.18094
2.32231
2.44297
2.52433
2.63855
3.15407
2.17222
2.34947
2.46458
2.5164
2.57567
2.94018
2.16188
2.3839
2.49505
2.51434
2.50821
2.66714
2.15121
2.42719
2.54381
2.53378
2.45006
2.33481
2.14088
2.48454
2.62456
2.6004
2.41948
1.93603
2.13425
2.56345
2.75312
2.73748
2.44679
1.44918
2.13484
2.6762
2.96061
2.99949
2.61686
0.281008
2.16325
2.85623
3.31575
3.48859
3.08963
1.02509
2.41496
3.28907
4.01527
4.441
4.2204
2.23196
3.99749
5.19391
6.05922
6.33579
6.22504
11.0818
8.5053
5.72367
3.84573
2.51347
1.56286
0.924628
0.529088
0.300503
0.173919
0.10451
0.0657909
0.0434509
0.0300303
0.0216317
0.0161693
0.0124876
0.00992054
0.00806825
0.00667887
0.00558259
0.00466283
0.00390324
0.00356931
7.76762
7.91323
6.32507
4.40103
2.98243
1.93257
1.1906
0.704291
0.408314
0.237917
0.142436
0.0888404
0.058055
0.0397475
0.0284324
0.02117
0.0163453
0.0130431
0.0107309
0.00909302
0.00793921
0.00716888
0.00682275
0.00712012
5.11457
7.04883
6.28731
4.73838
3.38763
2.30399
1.48636
0.915615
0.547049
0.324082
0.194786
0.120915
0.0783107
0.0530968
0.0376618
0.0278735
0.0214635
0.0171625
0.0142496
0.0123137
0.01112
0.0105518
0.010612
0.0112754
3.6485
6.39514
6.09536
4.98408
3.7212
2.65277
1.7959
1.15727
0.717898
0.436457
0.265695
0.165194
0.106385
0.0714856
0.0502232
0.0368642
0.0282289
0.022543
0.0188083
0.0164579
0.0151616
0.0147317
0.0150587
0.0159775
3.10763
5.81145
5.76041
5.05258
3.95263
2.95243
2.09819
1.4179
0.917982
0.577241
0.359079
0.225343
0.145048
0.0968155
0.0673734
0.0489661
0.0371862
0.0295485
0.0246467
0.0216706
0.0201315
0.0197262
0.0202106
0.0213211
2.91504
5.21136
5.53497
5.04458
4.08724
3.18505
2.37139
1.68133
1.13932
0.74525
0.477504
0.304995
0.197559
0.131547
0.090829
0.0653387
0.0491101
0.038692
0.0320954
0.0281518
0.0261379
0.0255957
0.0261357
0.0273831
2.86102
4.69227
5.41727
5.04012
4.17529
3.35336
2.60075
1.93008
1.36962
0.935122
0.62096
0.406871
0.267284
0.178635
0.122837
0.0875776
0.0650962
0.0507096
0.0416363
0.0362052
0.0333658
0.0324526
0.0329279
0.0342401
2.87583
4.30216
5.32133
5.07015
4.27681
3.4768
2.78037
2.14854
1.59376
1.13695
0.785576
0.531495
0.356879
0.241182
0.166116
0.117779
0.0866557
0.0666476
0.0539718
0.0462886
0.0421052
0.0404764
0.0407217
0.0419869
2.92832
4.04966
5.19423
5.1161
4.44547
3.59418
2.91924
2.32854
1.79746
1.33802
0.96351
0.676146
0.467208
0.32175
0.223561
0.158491
0.115779
0.0879579
0.0701129
0.0590809
0.0527995
0.0499474
0.0496777
0.0507666
2.9928
3.90681
5.02195
5.15776
4.68196
3.75465
3.0448
2.47404
1.97183
1.52547
1.14377
0.834238
0.596126
0.421263
0.297566
0.21242
0.154885
0.116561
0.0914766
0.0755718
0.066112
0.0612927
0.0599893
0.0607878
3.04725
3.82445
4.82777
5.19018
4.89523
4.01624
3.20271
2.60585
2.11869
1.69114
1.31547
0.996647
0.738167
0.537949
0.38899
0.28176
0.206515
0.154786
0.119952
0.0971666
0.0830212
0.0751487
0.0720696
0.0723096
3.0677
3.75888
4.64549
5.16967
5.04752
4.361
3.44117
2.76256
2.25506
1.83648
1.47138
1.15359
0.885609
0.667332
0.496468
0.3674
0.272771
0.205111
0.157863
0.125788
0.104955
0.0925127
0.0865908
0.0856972
3.05169
3.6801
4.47484
5.08761
5.12704
4.70743
3.77889
2.99147
2.41592
1.97704
1.61419
1.30026
1.02985
0.802553
0.616088
0.468188
0.354545
0.269605
0.207715
0.163848
0.133922
0.114868
0.104558
0.101571
2.99295
3.56804
4.29498
4.93514
5.14898
4.92677
4.19479
3.33022
2.65141
2.1491
1.76154
1.44236
1.16971
0.936982
0.741632
0.580301
0.450549
0.349002
0.271522
0.213932
0.172516
0.144352
0.12748
0.120936
2.89528
3.41414
4.0856
4.72759
5.08452
5.02654
4.56345
3.75063
2.99858
2.40453
1.95367
1.60175
1.31462
1.07392
0.870499
0.699573
0.557644
0.442052
0.349892
0.278047
0.223517
0.183835
0.157663
0.145337
2.76628
3.21879
3.83545
4.46425
4.91113
5.01103
4.78145
4.16736
3.43372
2.7752
2.24166
1.82421
1.49521
1.22974
1.01098
0.828264
0.675112
0.547506
0.44242
0.357167
0.289269
0.236653
0.198446
0.177174
2.61677
2.98934
3.54364
4.14347
4.63499
4.87923
4.81713
4.46031
3.85935
3.22314
2.64236
2.15416
1.75966
1.44422
1.19044
0.983409
0.812342
0.669994
0.551426
0.453054
0.372094
0.306309
0.254402
0.220218
2.46027
2.73822
3.21885
3.77169
4.27149
4.60432
4.69554
4.54406
4.15349
3.63305
3.08796
2.57703
2.13085
1.75733
1.45108
1.20139
0.997227
0.829261
0.690238
0.574677
0.478487
0.398529
0.332275
0.280884
2.3128
2.4811
2.87728
3.36489
3.83914
4.21018
4.4103
4.41103
4.22655
3.87471
3.44294
2.98676
2.5473
2.1492
1.80276
1.50857
1.26215
1.05703
0.886566
0.744678
0.626337
0.527232
0.444658
0.371289
2.184
2.23514
2.53987
2.94769
3.36723
3.73141
3.98087
4.08836
4.04758
3.87014
3.58224
3.23792
2.87079
2.50825
2.16847
1.86127
1.59038
1.35555
1.15426
0.982749
0.837292
0.713319
0.610817
0.511242
2.08137
2.01754
2.22851
2.55066
2.89526
3.21284
3.46328
3.61338
3.65992
3.60357
3.45308
3.23174
2.97029
2.68973
2.4072
2.13505
1.88102
1.64955
1.44238
1.25868
1.09725
0.95473
0.835051
0.714017
2.01918
1.8377
1.9617
2.20375
2.46744
2.71613
2.9234
3.06804
3.14008
3.14424
3.08199
2.95983
2.79761
2.60929
2.40715
2.2012
1.99929
1.80686
1.62773
1.46448
1.31728
1.18458
1.06992
0.953111
2.00584
1.69553
1.75155
1.92953
2.12172
2.29909
2.4448
2.54693
2.60094
2.6129
2.581
2.5113
2.41301
2.29451
2.1632
2.02543
1.88633
1.74968
1.61803
1.4933
1.37794
1.27336
1.18318
1.1068
1.99932
1.58497
1.6029
1.74072
1.88609
2.0103
2.09855
2.14752
2.16384
2.14953
2.10732
2.04416
1.96642
1.87943
1.78755
1.69433
1.60261
1.51459
1.43183
1.35531
1.28549
1.22252
1.16774
1.12463
1.75992
2.77419
5.66501
6.70442
6.57336
6.10267
0.78521
2.09174
3.31021
3.64327
3.44045
3.25028
0.224341
1.81544
2.41631
2.51785
2.29621
1.92481
0.253328
1.62775
1.97686
1.98497
1.79377
1.55361
0.272783
1.47672
1.70418
1.67501
1.52749
1.39734
1.209
1.36985
1.51269
1.47394
1.3703
1.31152
1.32596
1.27477
1.36872
1.33277
1.26981
1.25152
1.4187
1.19571
1.25591
1.2282
1.19547
1.20491
1.48622
1.12917
1.16465
1.14608
1.1338
1.16359
1.5289
1.07268
1.08886
1.07741
1.07912
1.12257
1.54625
1.0248
1.02486
1.01713
1.02792
1.07985
1.54299
0.985162
0.96998
0.962852
0.978341
1.03544
1.52152
0.95489
0.92261
0.913236
0.929907
0.991042
1.48928
0.933872
0.881614
0.867372
0.883143
0.949809
1.44431
0.918653
0.845761
0.824744
0.839074
0.915579
1.38499
0.903883
0.813369
0.785073
0.798831
0.892981
1.30854
0.880632
0.782102
0.748268
0.763487
0.887508
1.19664
0.832308
0.749204
0.714686
0.734096
0.904202
0.274973
0.720588
0.713396
0.686042
0.712294
0.951106
0.264949
0.640608
0.684049
0.666502
0.701519
1.03762
0.24981
0.60179
0.677007
0.666427
0.708618
1.15293
0.229144
0.629672
0.713351
0.706011
0.747635
1.27339
0.864904
0.870851
0.898849
0.888154
0.886684
1.48721
2.16659
2.14346
1.99497
1.86399
1.56339
1.6083
1.93099
1.49809
1.51821
1.64504
1.77484
1.87883
1.93836
1.96157
1.95116
1.90844
1.84293
1.76306
1.67568
1.58603
1.49792
1.41403
1.3362
1.26572
1.20347
1.14994
1.10533
1.0698
1.04323
1.02629
1.61835
1.43237
1.48505
1.6167
1.75113
1.85712
1.91408
1.93321
1.91495
1.86232
1.78691
1.69834
1.60408
1.5096
1.41867
1.33378
1.25639
1.18727
1.12681
1.07505
1.03174
0.996584
0.969478
0.950324
1.46882
1.40058
1.48752
1.64326
1.80666
1.94291
2.02265
2.0537
2.04185
1.98772
1.90608
1.80907
1.7055
1.60165
1.5017
1.40827
1.32284
1.24609
1.17815
1.11881
1.06778
1.02496
0.990412
0.963763
1.39192
1.39417
1.52392
1.72139
1.93668
2.12691
2.25492
2.31445
2.32379
2.27875
2.19878
2.09999
1.99131
1.88021
1.77162
1.66851
1.57246
1.48419
1.40388
1.33146
1.26692
1.21041
1.16176
1.1209
1.34568
1.40836
1.58267
1.83512
2.11956
2.37865
2.56336
2.65896
2.6857
2.64292
2.55446
2.43903
2.31491
2.19135
2.07325
1.96297
1.86136
1.76842
1.68369
1.60661
1.53673
1.4739
1.41713
1.36257
1.31875
1.43157
1.65178
1.96758
2.33088
2.65959
2.87988
2.97393
2.943
2.84617
2.71694
2.57837
2.43944
2.30582
2.18091
2.06616
1.96173
1.86706
1.78122
1.70325
1.63231
1.568
1.50999
1.44757
1.30173
1.45486
1.721
2.10582
2.55087
2.92458
3.11346
3.10409
3.01313
2.8727
2.71097
2.54351
2.38224
2.23348
2.09961
1.98062
1.87524
1.78155
1.69774
1.622
1.55318
1.48944
1.43523
1.36673
1.28541
1.47221
1.78534
2.25001
2.78132
3.13533
3.21452
3.10369
2.8768
2.61807
2.36867
2.14314
1.94596
1.7778
1.6363
1.51755
1.41717
1.33094
1.25564
1.18807
1.12767
1.06635
1.02137
0.947467
1.26485
1.48131
1.84909
2.42328
3.03559
3.33612
3.22738
2.86897
2.43353
2.04782
1.72543
1.45884
1.23893
1.06399
0.925409
0.814909
0.725626
0.651905
0.589856
0.535364
0.489137
0.443228
0.412701
0.363108
1.23825
1.4843
1.92939
2.67709
3.36358
3.4627
3.10938
2.45181
1.90768
1.48727
1.1614
0.909869
0.723782
0.583608
0.476977
0.395212
0.332537
0.283878
0.245381
0.214113
0.188797
0.166813
0.150703
0.131196
1.20678
1.489
2.06071
3.07669
3.71646
3.52408
2.80846
2.06629
1.54112
1.1636
0.879752
0.667963
0.508628
0.389037
0.300681
0.236038
0.188327
0.152906
0.126287
0.105897
0.090126
0.0777495
0.0685209
0.0609334
1.17464
1.51258
2.30634
3.65035
4.00438
3.50383
2.4719
1.77749
1.30698
0.969153
0.719962
0.532698
0.393754
0.291995
0.217986
0.16437
0.125644
0.097731
0.0776066
0.0631149
0.0525985
0.044961
0.0397615
0.037175
1.15011
1.58916
2.77361
4.28323
4.14629
3.20201
2.18459
1.54437
1.10134
0.783365
0.55447
0.392633
0.280478
0.203371
0.150161
0.112938
0.0864226
0.0672377
0.0532214
0.0429757
0.0356167
0.030624
0.0278486
0.0274465
1.14494
1.76776
3.57012
4.73419
4.19059
2.83933
1.90746
1.30894
0.893424
0.606828
0.410224
0.278502
0.191744
0.134792
0.0971912
0.0720945
0.0550893
0.0433555
0.0351361
0.0293701
0.0254482
0.0230518
0.0221512
0.0226869
1.17355
2.12262
4.61838
4.9226
3.89243
2.47591
1.63351
1.07646
0.705601
0.461243
0.303833
0.203782
0.139765
0.0981539
0.0706288
0.0521445
0.0396068
0.0310861
0.0253482
0.0216132
0.0194077
0.0184541
0.0186166
0.019658
1.2613
2.79993
5.40308
4.98181
3.37939
2.13014
1.35931
0.859478
0.540929
0.343161
0.222437
0.148245
0.101834
0.0721246
0.0526343
0.0395575
0.0306389
0.0245294
0.0204188
0.0178162
0.01641
0.0160253
0.0164317
0.0176553
1.44209
3.98623
5.67577
4.73735
2.90488
1.79919
1.09807
0.663906
0.404571
0.252725
0.162819
0.108349
0.0744901
0.0529229
0.0388803
0.0295661
0.0233112
0.0191143
0.0163783
0.0147519
0.0140196
0.0140538
0.0146611
0.015944
1.74586
5.37784
5.71224
4.23187
2.52247
1.47876
0.856111
0.499719
0.300219
0.187034
0.120975
0.0811354
0.0563346
0.0404538
0.0300451
0.0231085
0.0184565
0.015374
0.0134295
0.0123627
0.012013
0.0122227
0.0129669
0.0141766
2.26021
6.35247
5.74048
3.67249
2.08721
1.1632
0.649229
0.37286
0.2231
0.139448
0.0908596
0.0615339
0.0432198
0.0314426
0.0236847
0.0184878
0.0149904
0.0126782
0.0112441
0.0105031
0.0103407
0.0106182
0.0113652
0.0124461
3.20282
6.74484
5.54487
3.14558
1.69547
0.896168
0.485862
0.276716
0.166253
0.104867
0.0690558
0.047287
0.0335933
0.0247299
0.0188596
0.0149109
0.0122477
0.0104904
0.00941351
0.00888317
0.00881687
0.00910675
0.00979771
0.0107489
4.81518
6.88192
5.10892
2.66072
1.31831
0.667532
0.358799
0.205922
0.125178
0.0798959
0.053216
0.0368519
0.026474
0.0197056
0.0151908
0.0121342
0.0100609
0.00868666
0.00784356
0.00743321
0.00739585
0.00765651
0.00825626
0.0090813
7.33323
7.34063
4.57148
2.09113
0.977398
0.489321
0.265532
0.154543
0.0952131
0.0615164
0.0414417
0.0290102
0.0210583
0.0158309
0.012317
0.00991884
0.00827682
0.00717474
0.00648514
0.00613505
0.00608197
0.00628243
0.00676914
0.00747256
9.76779
7.74087
3.49631
1.52373
0.704094
0.357471
0.197776
0.117096
0.0731739
0.0478538
0.0325869
0.0230368
0.0168741
0.0127902
0.0100234
0.00811824
0.00679796
0.0058943
0.00530751
0.00498117
0.00488493
0.00500115
0.00535824
0.00594164
12.6843
7.20805
2.72921
1.09931
0.506505
0.263033
0.148791
0.0896517
0.0568116
0.0375867
0.0258506
0.018433
0.0136037
0.0103776
0.0081744
0.00664301
0.00556695
0.00481212
0.00429708
0.00397458
0.00381961
0.00382978
0.00403604
0.00448828
2.68602
5.55861
7.97106
8.59405
9.03354
35.4883
1.02446
2.80672
4.33906
5.56537
6.45672
10.3487
0.267546
2.30523
3.52632
4.63851
5.2908
5.71
1.2298
2.17288
3.17863
4.04864
4.22137
3.87168
1.44868
2.12427
2.97227
3.55401
3.42039
2.75888
1.61929
2.10571
2.82609
3.15588
2.83865
2.04386
1.74922
2.0973
2.71495
2.86111
2.4083
1.60497
1.83988
2.08934
2.62731
2.65272
2.09107
1.31934
1.89518
2.07607
2.55615
2.50737
1.85774
1.12255
1.91994
2.05285
2.4983
2.40099
1.68896
0.983059
1.91918
2.01839
2.45058
2.32432
1.56933
0.882256
1.89792
1.97372
2.40989
2.27303
1.49006
0.81003
1.85643
1.91884
2.37624
2.24844
1.44223
0.760575
1.79124
1.85298
2.35017
2.24821
1.42274
0.729497
1.70171
1.77532
2.33086
2.2726
1.4316
0.714198
1.58722
1.68402
2.31669
2.31976
1.47103
0.713732
1.44845
1.57543
2.30461
2.38791
1.54574
0.729041
1.29104
1.44578
2.28624
2.47671
1.6635
0.762241
1.18639
1.29202
2.24907
2.58383
1.8369
0.81858
0.268983
1.12285
2.17676
2.70453
2.08572
0.90929
0.252705
0.976508
2.04975
2.83025
2.44036
1.06037
0.230185
0.871966
1.8611
2.95293
2.94152
1.33855
0.86228
0.900736
1.66775
3.10426
3.59037
2.00471
2.0382
1.66364
2.15649
3.66015
4.43188
3.88462
15.6211
4.57703
1.64987
0.718962
0.358006
0.19461
0.113067
0.0693668
0.0445595
0.029802
0.0206792
0.0148537
0.0110277
0.0084516
0.00667825
0.00543375
0.00454651
0.00390755
0.00344766
0.00312338
0.00290805
0.00279471
0.0028254
0.0031057
6.3355
2.50937
1.09504
0.518429
0.265809
0.147414
0.087214
0.0543281
0.0353264
0.0238559
0.0166809
0.0120549
0.00899157
0.00691337
0.00547172
0.0044505
0.00371234
0.00316781
0.0027572
0.00243891
0.00218166
0.00196455
0.00179839
0.0018018
3.64027
1.67319
0.764212
0.371399
0.197116
0.112626
0.0680769
0.0430541
0.0283086
0.0192799
0.0135708
0.00985783
0.00738098
0.00568942
0.00450808
0.0036647
0.00304863
0.00258677
0.00222902
0.00193876
0.00168616
0.00144668
0.00120744
0.000872929
2.3834
1.13223
0.537097
0.273214
0.150093
0.0878
0.0539614
0.0345495
0.0229308
0.0157317
0.011137
0.00812645
0.00610583
0.0047186
0.00374522
0.00304714
0.00253488
0.00214921
0.00184965
0.00160665
0.00139594
0.00119771
0.000999583
0.000736551
1.60933
0.790168
0.391768
0.206751
0.116672
0.0695746
0.0433658
0.0280593
0.0187736
0.0129603
0.00922042
0.00675479
0.00509191
0.00394602
0.00313967
0.0025602
0.00213453
0.00181416
0.00156593
0.00136532
0.00119149
0.00102782
0.00086805
0.000670003
1.16212
0.580867
0.296557
0.160713
0.09257
0.0560525
0.0353399
0.0230652
0.0155346
0.0107796
0.00770055
0.00566059
0.00427985
0.00332595
0.00265359
0.00216996
0.00181456
0.00154713
0.00134006
0.00117279
0.00102773
0.000891894
0.000763222
0.000613716
0.885589
0.445446
0.23181
0.128045
0.0749011
0.0458958
0.0291991
0.0191884
0.0129911
0.00905101
0.00648657
0.00478135
0.00362431
0.00282376
0.00225907
0.00185281
0.00155434
0.00132987
0.00115625
0.0010162
0.00089506
0.000782929
0.000679985
0.000566597
0.70638
0.354863
0.186695
0.104416
0.0617538
0.0381768
0.0244551
0.0161539
0.0109787
0.00767116
0.00551042
0.00407011
0.00309148
0.00241404
0.00193629
0.00159284
0.00134081
0.00115157
0.00100554
0.000888192
0.000787328
0.000695414
0.000613583
0.000527589
0.584702
0.292093
0.154457
0.0870075
0.0518376
0.0322483
0.0207581
0.0137605
0.00937561
0.00656279
0.00472087
0.00349156
0.00265607
0.00207806
0.00167096
0.00137887
0.00116505
0.00100501
0.000882058
0.000783851
0.000700223
0.000625363
0.000560626
0.000495504
0.499455
0.247516
0.13098
0.0739871
0.0442724
0.0276532
0.0178547
0.0118601
0.00809091
0.00566768
0.00407915
0.00301888
0.00229891
0.00180168
0.00145237
0.00120256
0.00102044
0.000884807
0.000781271
0.000699265
0.00063023
0.000569588
0.000518524
0.000469275
0.438789
0.215357
0.113565
0.064133
0.0384482
0.0240648
0.01556
0.0103428
0.00705629
0.00494163
0.00355559
0.00263147
0.00200521
0.00157396
0.00127217
0.00105738
0.000901697
0.00078657
0.000699427
0.000631112
0.000574342
0.000525404
0.000485156
0.00044794
0.395439
0.191726
0.100513
0.0566211
0.0339354
0.0212473
0.0137378
0.00912623
0.00622004
0.00435087
0.00312731
0.0023133
0.00176336
0.00138623
0.00112368
0.000938018
0.000804475
0.000706607
0.000633295
0.000576499
0.000529953
0.000490546
0.000458793
0.000430681
0.364397
0.17432
0.0907004
0.0508821
0.0304281
0.019029
0.0122872
0.00814866
0.00554276
0.00386933
0.00277646
0.00205172
0.00156413
0.00123151
0.00100147
0.000840092
0.000725119
0.000641779
0.000580107
0.000532951
0.00049486
0.000463154
0.000438049
0.000416824
0.342805
0.161656
0.0833735
0.0465113
0.0277068
0.0172841
0.0111332
0.00736338
0.00499429
0.00347683
0.00248908
0.00183674
0.00140011
0.00110414
0.000901063
0.000759958
0.000660557
0.000589423
0.000537505
0.00049837
0.000467229
0.000441718
0.000421825
0.000405814
0.328882
0.152755
0.0780136
0.0432269
0.0256137
0.0159208
0.0102197
0.00673502
0.00455147
0.00315765
0.00225412
0.00166037
0.00126533
0.00099952
0.000818779
0.000694574
0.000608207
0.00054729
0.000503506
0.00047101
0.00044556
0.000425035
0.000409248
0.000397189
0.321598
0.146984
0.0742691
0.0408323
0.0240361
0.0148715
0.00950513
0.0062368
0.00419649
0.00289957
0.00206291
0.00151621
0.00115493
0.000913844
0.000751563
0.000641408
0.000565907
0.000513501
0.000476461
0.000449435
0.000428642
0.000412146
0.000399623
0.00039056
0.32056
0.143967
0.0719103
0.0391938
0.0228945
0.0140877
0.00895857
0.00584861
0.00391576
0.00269307
0.00190857
0.00139916
0.00106501
0.000844017
0.000696891
0.000598353
0.000531864
0.000486503
0.000455018
0.000432479
0.000415496
0.000402285
0.000392393
0.000385594
0.325895
0.143539
0.0707937
0.0382249
0.0221351
0.0135348
0.0085577
0.0055555
0.00369899
0.00253085
0.00178577
0.00130519
0.000992416
0.000787509
0.000652682
0.000563662
0.000504589
0.000465021
0.000438082
0.000419199
0.000405324
0.000394814
0.000387087
0.000382002
0.338272
0.145559
0.0708299
0.0378746
0.0217248
0.01319
0.00828688
0.00534672
0.0035386
0.00240743
0.00169041
0.00123115
0.000934651
0.00074229
0.000617238
0.000535891
0.000482848
0.000447999
0.000424755
0.000408829
0.000397459
0.000389149
0.000383261
0.000379479
0.359279
0.150456
0.072029
0.0380759
0.0216481
0.013039
0.00813593
0.00521492
0.00342922
0.00231881
0.00161947
0.00117468
0.00088983
0.000706799
0.00058923
0.00051389
0.000465642
0.000434584
0.000414321
0.000400781
0.00039142
0.000384856
0.000380467
0.000377694
0.391718
0.158332
0.0745013
0.0389333
0.0218741
0.0130678
0.00809907
0.00515543
0.00336733
0.00226232
0.00157086
0.00113413
0.000856606
0.000679914
0.000567706
0.000496835
0.000452256
0.000424158
0.000406263
0.000394645
0.000386902
0.000381706
0.00037842
0.000376471
0.440262
0.169537
0.0782095
0.040403
0.0224743
0.0132812
0.00816265
0.00516395
0.00335099
0.00223631
0.00154325
0.00110842
0.000834091
0.000660887
0.000552024
0.00048417
0.0004422
0.000416285
0.000400186
0.000390058
0.000383592
0.00037948
0.000377037
0.000375726
0.511371
0.184066
0.0831589
0.0425003
0.0234132
0.0137008
0.00835057
0.00523763
0.00337542
0.00223944
0.00153605
0.00109697
0.000821766
0.000649242
0.000541744
0.000475496
0.000435114
0.000410641
0.000395791
0.000386741
0.000381226
0.000377942
0.000376166
0.000375309
0.5889
0.199285
0.0891382
0.0452127
0.0246922
0.0143147
0.00865912
0.00539282
0.00344835
0.00227007
0.00154733
0.00109921
0.000819464
0.000644763
0.000536602
0.000470547
0.00043074
0.000406981
0.000392857
0.000384492
0.000379613
0.000376934
0.000375644
0.000375105
2.56363
4.74007
7.12672
6.61325
5.4109
4.27651
1.00505
3.35756
4.17159
3.59092
2.58591
1.52816
0.279947
2.82104
3.09063
2.45215
1.66923
1.00169
1.45707
2.57323
2.58064
1.9479
1.3184
0.841406
1.93226
2.41444
2.27489
1.69113
1.16751
0.786176
2.35216
2.29551
2.07895
1.55674
1.108
0.778954
2.70612
2.20039
1.95246
1.49243
1.09907
0.79785
2.99179
2.13526
1.87409
1.47281
1.11955
0.83944
3.21155
2.09311
1.83135
1.48265
1.16792
0.899845
3.36957
2.06938
1.81688
1.51844
1.23763
0.979352
3.47027
2.061
1.82342
1.57465
1.32762
1.07973
3.51745
2.06676
1.84957
1.64895
1.43808
1.20378
3.51943
2.08812
1.8933
1.73995
1.56981
1.35508
3.50237
2.1289
1.95171
1.84627
1.72356
1.53772
3.45755
2.18309
2.02204
1.96579
1.89934
1.75588
3.3769
2.2427
2.10059
2.09485
2.09532
2.01282
3.25207
2.29698
2.18266
2.22739
2.31071
2.30779
3.07356
2.33151
2.26035
2.35694
2.53745
2.64958
2.82976
2.32947
2.32353
2.4786
2.76691
3.04493
2.50654
2.29085
2.363
2.59542
2.99106
3.51066
2.09254
2.18773
2.40142
2.72297
3.21507
4.11956
1.58802
2.0652
2.50511
2.93205
3.5196
5.19502
1.14225
2.16568
2.95189
3.51322
4.17812
8.17367
3.17042
4.0968
5.64637
6.30102
6.67614
27.616
0.608675
0.211595
0.0957565
0.0484749
0.0263035
0.0151282
0.00908841
0.00562353
0.00357313
0.0023369
0.00158149
0.00111545
0.000826327
0.000647053
0.000536522
0.000469234
0.000428966
0.000405185
0.000391257
0.00038319
0.00037865
0.000376364
0.000375357
0.000375024
0.518278
0.21761
0.102453
0.0521788
0.028234
0.0161495
0.00964658
0.00593535
0.0037498
0.00243789
0.00163957
0.00114887
0.000845361
0.000657465
0.00054186
0.000471696
0.000429855
0.00040529
0.000391038
0.000382885
0.000378413
0.000376214
0.000375282
0.000375006
0.475227
0.223824
0.109429
0.0563099
0.030492
0.0173942
0.0103464
0.00633717
0.0039845
0.00257696
0.00172304
0.00119948
0.000876218
0.000676233
0.000553149
0.00047835
0.000433678
0.000407441
0.000392237
0.000383558
0.000378781
0.000376412
0.000375385
0.000375045
0.462322
0.23258
0.11717
0.0609864
0.0331295
0.0188931
0.0112077
0.00684197
0.00428578
0.00275976
0.0018357
0.00126992
0.000920766
0.000704593
0.000571198
0.000489764
0.000440846
0.000411943
0.000395097
0.000385401
0.00037993
0.000377076
0.000375744
0.000375193
0.469305
0.245409
0.1263
0.0664368
0.0362475
0.0206965
0.0122599
0.00746801
0.00466536
0.00299401
0.00198273
0.0013637
0.00098144
0.00074425
0.000597237
0.000506847
0.000452027
0.000419276
0.000399947
0.000388628
0.00038204
0.000378315
0.000376447
0.000375577
0.488833
0.263243
0.137503
0.0729702
0.0400027
0.022878
0.0135444
0.00824012
0.0051389
0.0032899
0.00217094
0.00148548
0.00106147
0.000797504
0.000632944
0.000530848
0.000468155
0.000430134
0.0004073
0.000393619
0.000385362
0.000380412
0.000377692
0.000376308
0.519359
0.286674
0.151564
0.0809923
0.0445972
0.0255388
0.0151169
0.00919141
0.00572705
0.0036608
0.00240924
0.00164134
0.0011651
0.000867378
0.000680523
0.000563407
0.000490471
0.000445454
0.000417861
0.000400914
0.000390327
0.000383662
0.000379708
0.00037753
0.561507
0.316889
0.169512
0.0910457
0.0502867
0.0288143
0.017052
0.0103656
0.00645676
0.00412408
0.00270919
0.00183917
0.00129786
0.000957825
0.000742869
0.000606694
0.000520629
0.000466512
0.000432616
0.000411273
0.000397503
0.000388433
0.000382675
0.000379355
0.616997
0.355788
0.192518
0.103825
0.0574189
0.0328864
0.0194493
0.0118202
0.00736323
0.00470227
0.00308579
0.00208927
0.00146697
0.00107406
0.000823826
0.000663621
0.00056088
0.000495064
0.000452921
0.000425699
0.000407576
0.000395174
0.000387002
0.000382055
0.68845
0.405884
0.222233
0.120243
0.0664706
0.0380026
0.0224423
0.0136314
0.00849249
0.00542462
0.00355843
0.00240495
0.00168188
0.00122292
0.00092849
0.000738063
0.000614233
0.000533458
0.000480589
0.00044556
0.00042156
0.000404651
0.000393238
0.00038598
0.779414
0.470503
0.260917
0.141574
0.0781058
0.0445046
0.0262126
0.0159012
0.00990515
0.00632923
0.00415223
0.00280346
0.0019548
0.00141331
0.0010635
0.000835078
0.000684602
0.000584765
0.000518031
0.000472728
0.000440875
0.000417885
0.00040204
0.00039147
0.894461
0.554039
0.311674
0.169613
0.0932629
0.0528702
0.0310103
0.0187673
0.0116817
0.00746595
0.00489974
0.00330702
0.00230146
0.00165672
0.00123743
0.000961199
0.000777061
0.000652981
0.000568418
0.000509702
0.000467425
0.000436219
0.00041425
0.000398941
1.03933
0.662238
0.37876
0.206905
0.113284
0.0637792
0.0371851
0.0224182
0.01393
0.00890049
0.00584329
0.00394426
0.00274206
0.00196785
0.00146129
0.00112486
0.000898185
0.000743313
0.000635916
0.000559796
0.000503763
0.000461476
0.000431018
0.000408923
1.22105
0.802517
0.467957
0.257048
0.140103
0.0782097
0.0452333
0.0271162
0.0167971
0.0107204
0.00703826
0.00475218
0.00330248
0.00236552
0.00174919
0.00133689
0.00105646
0.000862524
0.000725963
0.000627375
0.000553299
0.00049614
0.00045393
0.00042212
1.44804
0.984232
0.586971
0.325085
0.176515
0.0975837
0.0558692
0.0332317
0.0204854
0.0130436
0.00855782
0.00577886
0.00401595
0.00287373
0.00211909
0.00161112
0.00126279
0.00101934
0.000845624
0.000718152
0.000620552
0.000543569
0.000485164
0.000439474
1.73033
1.2188
0.745733
0.417932
0.22652
0.123976
0.0701322
0.041295
0.025279
0.0160317
0.0104999
0.00708737
0.00492542
0.00352314
0.0025938
0.00196512
0.00153105
0.00122496
0.00100402
0.000839565
0.000711473
0.000608254
0.000527688
0.000462251
2.07775
1.51967
0.956403
0.544709
0.29574
0.160403
0.0895447
0.0520758
0.0315824
0.0199097
0.0129976
0.00876154
0.00608685
0.00435315
0.00320235
0.00242112
0.00187883
0.0014936
0.00121284
0.00100125
0.000833862
0.00069617
0.000585517
0.000492136
2.49179
1.9042
1.23296
0.716741
0.391775
0.211173
0.116335
0.0667006
0.0399795
0.0249955
0.016235
0.0109147
0.0075743
0.00541491
0.0039819
0.00300731
0.0023283
0.00184325
0.00148695
0.00121558
0.000997904
0.000815263
0.000664063
0.000531319
2.97828
2.38625
1.58928
0.946807
0.524294
0.28225
0.153723
0.086821
0.051322
0.0317464
0.0204713
0.013703
0.00948761
0.006776
0.00498062
0.00375971
0.00290755
0.00229656
0.00184515
0.00149839
0.00121685
0.000976126
0.000770682
0.000582591
3.55542
2.97572
2.03572
1.24701
0.704368
0.381397
0.206235
0.114838
0.0668575
0.0408263
0.0260773
0.0173455
0.0119642
0.00852764
0.0062624
0.00472528
0.00365266
0.00288239
0.00231126
0.00186986
0.00150795
0.00119299
0.000915567
0.000649494
4.28361
3.67585
2.57557
1.62521
0.942523
0.517736
0.279881
0.154155
0.088402
0.0532057
0.0335902
0.0221557
0.0151975
0.0107962
0.00791433
0.00596715
0.00461151
0.00363857
0.00291628
0.00235619
0.00189386
0.00148531
0.00111338
0.000736683
5.33033
4.52525
3.20744
2.08152
1.24543
0.700219
0.381921
0.209366
0.118544
0.0702965
0.0437934
0.0285867
0.0194644
0.0137607
0.0100589
0.00757365
0.00585089
0.00461775
0.00370324
0.00299362
0.00240612
0.00188113
0.00138686
0.000851203
7.53812
5.58391
3.93753
2.61049
1.61338
0.935164
0.519862
0.286174
0.160819
0.094117
0.0578253
0.037299
0.0251665
0.0176798
0.0128728
0.00967284
0.00746906
0.00589922
0.0047388
0.00384001
0.00309643
0.00242832
0.00177823
0.00101025
14.0907
7.697
4.91625
3.22787
2.04485
1.22503
0.699969
0.39087
0.219743
0.127453
0.0773152
0.0492493
0.0328863
0.0229272
0.0166118
0.0124521
0.00961364
0.00760803
0.00613635
0.0050045
0.00407517
0.00324178
0.00240507
0.00134309
)
;

boundaryField
{
    rotor
    {
        type            epsilonWallFunction;
        value           nonuniform List<scalar> 
144
(
2.38882
3.73608
4.48995
4.18709
3.31786
2.92386
2.38882
0.951137
1.2384
1.66027
2.03751
2.36565
2.64526
2.87869
3.06898
3.21991
3.33662
3.41501
3.43374
3.4016
3.30809
3.15407
2.94018
2.66714
2.33481
1.93603
1.44918
0.281008
1.02509
2.23196
2.23196
3.99749
5.19391
6.05922
6.33579
6.22504
1.75992
2.77419
5.66501
6.70442
6.57336
6.10267
1.75992
0.78521
0.224341
0.253328
0.272783
1.209
1.32596
1.4187
1.48622
1.5289
1.54625
1.54299
1.52152
1.48928
1.44431
1.38499
1.30854
1.19664
0.274973
0.264949
0.24981
0.229144
0.864904
2.16659
2.16659
2.14346
1.99497
1.86399
1.56339
1.6083
2.68602
5.55861
7.97106
8.59405
9.03354
35.4883
2.68602
1.02446
0.267546
1.2298
1.44868
1.61929
1.74922
1.83988
1.89518
1.91994
1.91918
1.89792
1.85643
1.79124
1.70171
1.58722
1.44845
1.29104
1.18639
0.268983
0.252705
0.230185
0.86228
2.0382
2.0382
1.66364
2.15649
3.66015
4.43188
3.88462
2.56363
4.74007
7.12672
6.61325
5.4109
4.27651
2.56363
1.00505
0.279947
1.45707
1.93226
2.35216
2.70612
2.99179
3.21155
3.36957
3.47027
3.51745
3.51943
3.50237
3.45755
3.3769
3.25207
3.07356
2.82976
2.50654
2.09254
1.58802
1.14225
3.17042
3.17042
4.0968
5.64637
6.30102
6.67614
27.616
)
;
    }
    freestream
    {
        type            inletOutlet;
        inletValue      uniform 0.000375;
        value           nonuniform List<scalar> 
96
(
0.00356931
0.00712012
0.0112754
0.0159775
0.0213211
0.0273831
0.0342401
0.0419869
0.0507666
0.0607878
0.0723096
0.0856972
0.101571
0.120936
0.145337
0.177174
0.220218
0.280884
0.371289
0.511242
0.714017
0.953111
1.1068
1.12463
1.02629
0.950324
0.963763
1.1209
1.36257
1.44757
1.36673
0.947467
0.363108
0.131196
0.0609334
0.037175
0.0274465
0.0226869
0.019658
0.0176553
0.015944
0.0141766
0.0124461
0.0107489
0.0090813
0.00747256
0.00594164
0.00448828
0.0031057
0.0018018
0.000375
0.000375
0.000375
0.000375
0.000375
0.000375
0.000375
0.000375
0.000375
0.000375
0.000375
0.000375
0.000375
0.000375
0.000375
0.000375
0.000375
0.000375
0.000375
0.000375
0.000375
0.000375
0.000375
0.000375
0.000375
0.000375
0.000375
0.000375
0.000375
0.000375
0.000375
0.000375
0.000375
0.000375
0.000375
0.000375
0.000375
0.000375
0.000375
0.000375
0.000375
0.000375
0.000375
0.000375
0.000375
0.000375
)
;
    }
    frontAndBack
    {
        type            empty;
    }
}


// ************************************************************************* //
