/*--------------------------------*- C++ -*----------------------------------*\
  =========                 |
  \\      /  F ield         | OpenFOAM: The Open Source CFD Toolbox
   \\    /   O peration     | Website:  https://openfoam.org
    \\  /    A nd           | Version:  11
     \\/     M anipulation  |
\*---------------------------------------------------------------------------*/
FoamFile
{
    format      ascii;
    class       volScalarField;
    location    "1.24";
    object      k;
}
// * * * * * * * * * * * * * * * * * * * * * * * * * * * * * * * * * * * * * //

dimensions      [0 2 -2 0 0 0 0];

internalField   nonuniform List<scalar> 
2880
(
0.00510014
0.0154915
0.0306281
0.042583
0.0470761
0.0551844
0.0182549
0.0395903
0.0593899
0.0705412
0.0728142
0.0813733
0.0256274
0.0523612
0.0746305
0.0858144
0.0887341
0.0953492
0.0311639
0.0621329
0.0857117
0.097184
0.101161
0.107564
0.0357261
0.0704864
0.0947223
0.106707
0.112062
0.118948
0.0394694
0.0777232
0.102289
0.115002
0.121918
0.129544
0.0425238
0.0838919
0.108644
0.122256
0.130803
0.139483
0.0449915
0.0890129
0.113888
0.128497
0.13866
0.148662
0.0469535
0.0931129
0.118086
0.13371
0.145389
0.156737
0.04848
0.0962214
0.121287
0.137874
0.15089
0.163455
0.0496432
0.0983618
0.123536
0.140977
0.155096
0.16865
0.0504161
0.0995726
0.124866
0.14302
0.157974
0.172232
0.0505992
0.0999028
0.125252
0.143989
0.159503
0.174134
0.0502812
0.0994349
0.124831
0.143979
0.159761
0.174466
0.0493537
0.0981409
0.123537
0.142998
0.158926
0.173467
0.0478075
0.0959936
0.121346
0.141064
0.157028
0.171214
0.0456177
0.0929337
0.118196
0.138173
0.154163
0.167916
0.0427415
0.0888591
0.113969
0.134265
0.150398
0.163782
0.0390991
0.0836054
0.108465
0.129185
0.14573
0.158986
0.0344833
0.0769145
0.101354
0.122631
0.140019
0.15362
0.0284142
0.068354
0.0920941
0.114044
0.132846
0.147573
0.0249581
0.0570651
0.0797219
0.102382
0.123276
0.140164
0.0198692
0.0415677
0.061982
0.0854608
0.109258
0.129019
0.00484077
0.0165241
0.0353115
0.0614733
0.089796
0.117748
0.162915
0.24665
0.260699
0.244978
0.209365
0.169462
0.133155
0.103583
0.081218
0.06497
0.0532826
0.0447786
0.0384486
0.0336095
0.0298091
0.026744
0.024204
0.022036
0.0201212
0.0183581
0.0166525
0.0149394
0.0133427
0.0125581
0.120684
0.211903
0.247141
0.242937
0.219579
0.183221
0.147298
0.116185
0.0915558
0.0731398
0.0597319
0.0499871
0.0428018
0.0373852
0.0332014
0.0298923
0.0272174
0.0250145
0.0231769
0.0216387
0.0203657
0.0193767
0.0188687
0.0192738
0.115247
0.184616
0.227185
0.236138
0.223337
0.194085
0.160394
0.129009
0.102749
0.082318
0.067094
0.0559401
0.0477442
0.0416331
0.0369884
0.0333929
0.030574
0.0283617
0.0266618
0.025434
0.0246698
0.0243941
0.0247006
0.0256453
0.125321
0.171744
0.208489
0.224423
0.220624
0.201642
0.171683
0.141399
0.114415
0.0923725
0.0753827
0.0627034
0.0533402
0.0463951
0.0411845
0.0372343
0.0342378
0.0320127
0.0304648
0.0295512
0.0292454
0.0295048
0.030332
0.0315639
0.140092
0.171149
0.196324
0.212119
0.214154
0.203882
0.18036
0.15261
0.126016
0.103022
0.0845164
0.0703
0.0596441
0.0517179
0.0458137
0.0414135
0.0381771
0.0359022
0.034478
0.0338357
0.0338993
0.0345411
0.0357415
0.0371467
0.150472
0.175701
0.194036
0.202106
0.205716
0.201577
0.186067
0.161969
0.136909
0.113827
0.0942806
0.0786765
0.0666818
0.0576478
0.0509115
0.0459411
0.0423699
0.03997
0.0386013
0.0381555
0.0384684
0.0394205
0.0408818
0.0424198
0.158759
0.184565
0.197996
0.198131
0.198095
0.196626
0.187534
0.168633
0.146356
0.124209
0.104313
0.0876695
0.0744213
0.0642148
0.0565207
0.0508443
0.0468126
0.0441747
0.0427557
0.0424027
0.0428635
0.0440327
0.0456892
0.0473391
0.16645
0.192832
0.206297
0.201295
0.194337
0.19131
0.185703
0.172471
0.153745
0.133503
0.114097
0.0969683
0.082731
0.0714005
0.0626734
0.0561608
0.0515222
0.0485003
0.0468919
0.0465036
0.0470087
0.048293
0.0500874
0.0518335
0.173813
0.199294
0.215465
0.210163
0.196277
0.18788
0.182711
0.173039
0.158544
0.14109
0.123045
0.106133
0.0913547
0.0791027
0.0693633
0.0619249
0.0565332
0.0529589
0.050992
0.050413
0.0508509
0.0521305
0.0539995
0.0558225
0.180477
0.204607
0.223392
0.221105
0.204079
0.188981
0.180381
0.172305
0.160965
0.146559
0.130574
0.11462
0.0998951
0.0870963
0.076506
0.0681397
0.0618858
0.0575902
0.0550731
0.0541166
0.0543655
0.0554924
0.0573559
0.0592272
0.185966
0.20906
0.229386
0.231285
0.218235
0.194717
0.181187
0.171845
0.161897
0.150022
0.136352
0.121934
0.107879
0.0950316
0.0839047
0.0747393
0.0675995
0.0624514
0.0591919
0.0576435
0.0575558
0.0583635
0.0601034
0.0619825
0.189896
0.21242
0.23338
0.240413
0.232154
0.207844
0.18614
0.173047
0.162591
0.152124
0.140439
0.127761
0.114885
0.102513
0.091271
0.0815714
0.0736458
0.0676005
0.0634476
0.0611033
0.0603901
0.0608288
0.0622217
0.0640464
0.191964
0.214234
0.235631
0.247164
0.243692
0.224896
0.198068
0.178355
0.16512
0.154163
0.143495
0.132253
0.120639
0.109174
0.0982721
0.0884044
0.0799247
0.0730631
0.0679527
0.0646304
0.0630213
0.0629402
0.0637649
0.0654285
0.192205
0.214247
0.235975
0.251006
0.252417
0.241113
0.215423
0.190661
0.172039
0.15832
0.146936
0.136212
0.125497
0.114861
0.104599
0.0949475
0.0862454
0.0787897
0.0728004
0.0684272
0.0657357
0.0647046
0.0649897
0.0661819
0.190775
0.212351
0.234296
0.251685
0.258436
0.253007
0.234232
0.208761
0.185831
0.167637
0.153355
0.141376
0.130515
0.120237
0.110401
0.101081
0.0924264
0.0846626
0.0780126
0.0726743
0.0688123
0.0665501
0.0659744
0.0665556
0.18777
0.20853
0.230377
0.249435
0.260681
0.260748
0.250151
0.228841
0.205326
0.18374
0.16559
0.150613
0.137947
0.126808
0.116699
0.107349
0.0986755
0.0907309
0.0836336
0.077532
0.0725918
0.0690038
0.0670232
0.066918
0.183452
0.20298
0.22426
0.244244
0.25874
0.264339
0.260294
0.246685
0.226608
0.205006
0.184492
0.166313
0.150682
0.137283
0.12565
0.115346
0.106071
0.0976655
0.0900762
0.0833203
0.077468
0.0726449
0.0691291
0.0677594
0.178146
0.19606
0.216223
0.236311
0.252877
0.262843
0.264513
0.258417
0.244634
0.226596
0.206988
0.187676
0.169804
0.153853
0.13985
0.127583
0.116774
0.107181
0.0986213
0.090975
0.0841833
0.0782371
0.0732218
0.0701294
0.172205
0.18824
0.206773
0.226123
0.243491
0.256244
0.262649
0.262156
0.25545
0.242976
0.227191
0.209783
0.192138
0.175219
0.159561
0.145374
0.132661
0.121321
0.111215
0.102198
0.0941501
0.0869712
0.0805698
0.0755126
0.16598
0.180049
0.196597
0.214458
0.231412
0.245356
0.254573
0.258401
0.256811
0.25034
0.239591
0.226181
0.211267
0.195823
0.180575
0.166
0.152376
0.139826
0.128375
0.117979
0.108575
0.100066
0.0924001
0.0854798
0.159791
0.171993
0.186456
0.202354
0.217936
0.231515
0.241788
0.2478
0.249606
0.24735
0.241352
0.232324
0.221289
0.209012
0.196127
0.183146
0.170454
0.158299
0.146819
0.13608
0.126096
0.116842
0.108437
0.100475
0.153867
0.164496
0.177038
0.190888
0.204614
0.216814
0.226477
0.232908
0.235949
0.235925
0.232962
0.227338
0.219787
0.210841
0.201013
0.190725
0.180327
0.170116
0.160262
0.150866
0.141976
0.133492
0.125588
0.118259
0.148236
0.157844
0.168826
0.180921
0.192868
0.203375
0.211609
0.217071
0.219746
0.22013
0.218177
0.214253
0.208816
0.202272
0.19498
0.187245
0.17931
0.171361
0.163609
0.156227
0.14939
0.143276
0.137927
0.133617
0.14295
0.15218
0.162029
0.172894
0.183591
0.192775
0.199663
0.203739
0.205428
0.205112
0.20284
0.199063
0.194199
0.188613
0.182609
0.176442
0.170324
0.164427
0.15888
0.153768
0.149137
0.145042
0.141724
0.139594
0.00377894
0.0115384
0.0387324
0.0681985
0.0931185
0.115264
0.0151243
0.0245475
0.0550989
0.0811826
0.102492
0.121235
0.0199336
0.036712
0.0665724
0.0890081
0.106888
0.121559
0.022509
0.0450516
0.0731236
0.0929513
0.108345
0.120461
0.0242374
0.050791
0.076879
0.0947597
0.108303
0.118702
0.0252989
0.0549027
0.0788652
0.0952166
0.107373
0.116502
0.0269044
0.0575352
0.0796681
0.0948134
0.105787
0.113918
0.0281437
0.0590831
0.0796304
0.0936688
0.103696
0.110985
0.0290286
0.0597935
0.0789539
0.0919935
0.101185
0.107737
0.0295805
0.05984
0.0777893
0.0898913
0.0983162
0.104224
0.0298022
0.0593471
0.0762333
0.0874392
0.0951483
0.100512
0.0297594
0.0583955
0.0743479
0.0846947
0.0917339
0.0966734
0.0294818
0.0570106
0.0721676
0.0816987
0.0881198
0.092784
0.0290631
0.0552089
0.0697089
0.0784761
0.0843442
0.0889196
0.0284744
0.0530079
0.0669697
0.0750387
0.0804344
0.085151
0.027689
0.0503866
0.0639328
0.0713902
0.0764064
0.0815325
0.0266604
0.0472879
0.060578
0.0675293
0.0722652
0.078133
0.0251161
0.0436907
0.0569092
0.0634544
0.0680027
0.0751084
0.0244196
0.0400202
0.0529877
0.0591586
0.0635844
0.0724129
0.0235282
0.0366669
0.0488549
0.0546018
0.0589787
0.0695857
0.0221828
0.0333681
0.0443468
0.0496391
0.0540038
0.0660186
0.0203472
0.0295787
0.0389317
0.0438821
0.0480498
0.060727
0.0166476
0.0238113
0.031014
0.0360987
0.0391872
0.0545013
0.00464736
0.00889156
0.0136002
0.0189182
0.0221261
0.0302925
0.139014
0.147572
0.156594
0.166809
0.176994
0.185705
0.19218
0.195677
0.196865
0.195998
0.193263
0.189176
0.184182
0.178661
0.172918
0.167201
0.161706
0.156592
0.15199
0.147989
0.144653
0.142034
0.140169
0.139066
0.136103
0.143754
0.152275
0.162383
0.172796
0.181988
0.188944
0.192836
0.194163
0.1934
0.190745
0.186736
0.181838
0.176435
0.170841
0.165299
0.159998
0.155077
0.150647
0.146789
0.14355
0.140965
0.139052
0.137785
0.133385
0.140426
0.148692
0.159042
0.170134
0.180268
0.188125
0.193031
0.19522
0.195369
0.19359
0.190386
0.186211
0.181445
0.176392
0.17129
0.166308
0.161569
0.157167
0.153164
0.149612
0.146568
0.144092
0.142196
0.130555
0.137244
0.14537
0.156069
0.167982
0.179195
0.188282
0.194647
0.198304
0.199716
0.199355
0.197593
0.194847
0.191428
0.187592
0.183529
0.179389
0.175277
0.171274
0.167456
0.16389
0.160651
0.157787
0.155345
0.12759
0.13394
0.141863
0.152769
0.165327
0.177395
0.187338
0.194472
0.198852
0.200947
0.201307
0.20038
0.198539
0.196048
0.193173
0.190106
0.18697
0.183843
0.180755
0.177722
0.174784
0.171988
0.169309
0.166639
0.12441
0.130327
0.137837
0.148577
0.161196
0.173167
0.182681
0.189302
0.193485
0.195724
0.196441
0.196084
0.195065
0.193392
0.191274
0.188935
0.186451
0.183876
0.181256
0.178626
0.176012
0.173465
0.170974
0.168146
0.120954
0.126324
0.133172
0.143288
0.155097
0.165244
0.171879
0.175387
0.176832
0.177003
0.176427
0.175499
0.174312
0.172904
0.171309
0.169631
0.167885
0.166066
0.16416
0.162156
0.160055
0.157864
0.155772
0.152841
0.117219
0.122001
0.128101
0.13741
0.147771
0.154151
0.155108
0.152334
0.148472
0.144687
0.141396
0.138568
0.136107
0.133925
0.131952
0.130113
0.128333
0.126531
0.124652
0.122634
0.120497
0.118009
0.115907
0.112233
0.113266
0.117582
0.123302
0.132799
0.141188
0.142871
0.136461
0.126204
0.117026
0.109582
0.103697
0.0987991
0.0945807
0.0908797
0.0875774
0.0845606
0.0817415
0.079038
0.0763832
0.0736771
0.0709926
0.0679644
0.0655647
0.0615962
0.109204
0.113416
0.119836
0.131163
0.138317
0.134673
0.120616
0.106268
0.0963766
0.0896455
0.0838281
0.078269
0.0729097
0.0678775
0.0632593
0.0590885
0.0553605
0.0520544
0.0491224
0.0465075
0.0442068
0.042096
0.0404858
0.0387351
0.105177
0.109895
0.118691
0.133179
0.137551
0.128668
0.108791
0.0952348
0.0871944
0.0810344
0.0752088
0.0693083
0.0634885
0.0579837
0.052967
0.0485341
0.0446979
0.0414067
0.0386101
0.0362767
0.0344014
0.032937
0.0319952
0.0314573
0.101337
0.107494
0.120908
0.138695
0.137438
0.120212
0.100138
0.089679
0.0829548
0.077053
0.0709494
0.0646816
0.0586014
0.0529715
0.0479377
0.0435397
0.0397667
0.0365888
0.0339607
0.0318593
0.030295
0.0293407
0.0290259
0.029301
0.0978504
0.10686
0.12746
0.14317
0.135506
0.110762
0.0946
0.086715
0.0805487
0.074144
0.0672978
0.0604371
0.0540561
0.048394
0.0435139
0.0393899
0.0359625
0.0331734
0.0309726
0.0293312
0.0282459
0.0277907
0.0280237
0.0288891
0.0949205
0.108759
0.137531
0.144437
0.12786
0.102853
0.0922735
0.0855118
0.0784741
0.0709378
0.0632228
0.0559753
0.0495579
0.0440628
0.0394589
0.0356724
0.0326253
0.0302547
0.0285239
0.0274242
0.0269857
0.0271194
0.0277783
0.0291298
0.0928994
0.114312
0.145083
0.141954
0.116476
0.0997452
0.0916647
0.0840703
0.0758098
0.0672323
0.0590772
0.0518563
0.0456996
0.0405663
0.0363593
0.032977
0.0303369
0.0283837
0.0270912
0.0264514
0.0264532
0.0269184
0.0279967
0.0296045
0.0920646
0.123658
0.146943
0.134244
0.109727
0.0988566
0.0908202
0.0818225
0.0722738
0.063117
0.0550138
0.0481117
0.0423664
0.0376633
0.0338765
0.0308976
0.0286466
0.0270745
0.0261565
0.0258797
0.0261148
0.0268831
0.0282271
0.0298728
0.0925863
0.133644
0.142903
0.123006
0.108058
0.0988991
0.0891299
0.078479
0.0681477
0.0589932
0.0512028
0.0447305
0.0394402
0.0351752
0.0317936
0.0291837
0.027269
0.0260037
0.0253625
0.0253255
0.0257395
0.0267171
0.0281613
0.0298167
0.0945318
0.13776
0.134099
0.118782
0.108151
0.0978268
0.086027
0.0743143
0.0638782
0.0550137
0.0476738
0.0416858
0.0368543
0.0330006
0.0299788
0.0276808
0.0260343
0.024996
0.0245408
0.0246223
0.025158
0.0262122
0.0276556
0.0292518
0.097627
0.137735
0.128359
0.118336
0.108437
0.0954782
0.0819785
0.0698682
0.0596347
0.0512229
0.0443973
0.0389011
0.0345058
0.0310233
0.0283089
0.0262594
0.0248081
0.023916
0.0235605
0.0236915
0.0242641
0.025297
0.0266841
0.0281981
0.0970014
0.133881
0.126734
0.120792
0.107578
0.0916345
0.0772525
0.065256
0.0555081
0.0476565
0.0413594
0.0363269
0.0323226
0.02916
0.0266987
0.0248402
0.0235214
0.0227069
0.0223777
0.0224968
0.0230255
0.0239757
0.0252635
0.0266838
0.0926041
0.131925
0.129792
0.122173
0.104381
0.0866522
0.0722118
0.0607221
0.0515854
0.044311
0.0385184
0.033909
0.0302486
0.0273566
0.0250985
0.0233804
0.022142
0.0213499
0.0209888
0.0210408
0.0214617
0.0222781
0.0234327
0.0247529
0.104634
0.135915
0.136782
0.122548
0.099069
0.0809638
0.0671092
0.0563364
0.0478625
0.0411577
0.0358374
0.0316095
0.0282492
0.025585
0.0234895
0.0218722
0.0206744
0.0198634
0.0194257
0.019357
0.0196233
0.0202527
0.0212395
0.0224524
0.126002
0.149426
0.140873
0.115361
0.0920883
0.0749875
0.0620966
0.0521419
0.0443425
0.0381838
0.0332981
0.02941
0.0263095
0.0238366
0.0218712
0.0203263
0.0191427
0.0182855
0.0177396
0.0175029
0.0175715
0.0179555
0.0187223
0.0198094
0.147399
0.162715
0.140766
0.107411
0.0849386
0.0690996
0.057281
0.0481718
0.0410326
0.0353864
0.0308955
0.027308
0.0244319
0.02212
0.0202601
0.0187683
0.017584
0.0166672
0.0159962
0.0155638
0.0153738
0.0154525
0.0159005
0.0168124
0.00574365
0.0229945
0.0542389
0.0871244
0.127699
0.143336
0.0196763
0.0500754
0.0876995
0.124954
0.161135
0.208506
0.0237068
0.0631574
0.102352
0.139062
0.168915
0.192624
0.0255173
0.0713831
0.109243
0.141862
0.160849
0.165605
0.0284569
0.0764596
0.111853
0.138701
0.146771
0.142872
0.0306503
0.0795552
0.11215
0.132664
0.133387
0.125149
0.0322686
0.081324
0.111176
0.126185
0.123152
0.111783
0.0333749
0.0821672
0.109565
0.120554
0.115309
0.102417
0.0340419
0.0823086
0.107725
0.116059
0.10934
0.0957814
0.0343399
0.081868
0.10585
0.112579
0.104831
0.0909529
0.0343334
0.0809024
0.104002
0.109873
0.10149
0.087365
0.0340828
0.0794401
0.102175
0.107698
0.0990986
0.0847047
0.0335892
0.0774683
0.100326
0.105944
0.0974462
0.0827778
0.0328028
0.07496
0.098393
0.104506
0.0963827
0.0814697
0.0317044
0.0718809
0.0962738
0.10325
0.0957942
0.0807062
0.030269
0.0681961
0.093824
0.102029
0.095562
0.0804359
0.0284786
0.063862
0.0908418
0.100674
0.0955474
0.0806202
0.0263189
0.0588217
0.0870486
0.0989736
0.0956
0.0812228
0.0249571
0.0529978
0.0820504
0.0966459
0.0955228
0.0821785
0.0239259
0.0466138
0.0752749
0.0932825
0.0947733
0.0832478
0.0224389
0.0396918
0.0661253
0.0880109
0.0927138
0.0840538
0.0204339
0.0319362
0.0540582
0.0790932
0.0882294
0.0838933
0.0165881
0.0222976
0.0378424
0.0629809
0.0784315
0.0791768
0.0043652
0.00690412
0.0147334
0.0372214
0.0625712
0.0729145
0.186577
0.16904
0.128005
0.0975868
0.0775557
0.0633785
0.0527203
0.0444546
0.037943
0.0327685
0.0286327
0.0253109
0.0226299
0.0204558
0.0186842
0.0172345
0.016045
0.0150693
0.0142745
0.0136392
0.0131531
0.0128376
0.0128315
0.0134197
0.201486
0.156004
0.11369
0.0875411
0.0703621
0.0579704
0.0484795
0.0410177
0.0350839
0.0303355
0.0265173
0.0234316
0.0209236
0.0188716
0.0171791
0.0157697
0.0145815
0.0135633
0.0126713
0.0118654
0.011106
0.0103698
0.00972381
0.00956077
0.175004
0.131102
0.0993252
0.0784403
0.0639772
0.0531408
0.0446514
0.0378868
0.0324605
0.02809
0.0245555
0.0216826
0.0193327
0.0173954
0.0157822
0.0144218
0.0132549
0.0122307
0.0113023
0.0104212
0.00952966
0.0085615
0.00746145
0.00587668
0.147299
0.112815
0.0877612
0.0707247
0.0583833
0.0488268
0.0411929
0.0350374
0.0300601
0.0260268
0.0227479
0.0200696
0.0178681
0.0160437
0.0145161
0.0132205
0.0121031
0.0111185
0.0102263
0.00938595
0.00854957
0.00766525
0.00669088
0.00537726
0.123577
0.0975837
0.0781928
0.0641873
0.0535139
0.0449997
0.0380871
0.0324576
0.027874
0.0241398
0.0210905
0.0185902
0.0165279
0.0148139
0.0133756
0.0121543
0.0111019
0.0101783
0.00934832
0.00857637
0.0078189
0.00703124
0.00619376
0.00513809
0.106576
0.0862711
0.070599
0.0586982
0.0492871
0.0416157
0.0353088
0.0301305
0.0258896
0.022419
0.0195748
0.0172359
0.0153024
0.013693
0.0123419
0.0111955
0.0102103
0.00934994
0.00858304
0.0078775
0.00719387
0.00649582
0.00577961
0.00492907
0.0948654
0.0778034
0.0644897
0.054072
0.0456255
0.038634
0.0328319
0.0280379
0.0240932
0.0208534
0.018191
0.015997
0.0141809
0.0126683
0.0113991
0.0103241
0.00940326
0.0086036
0.00789667
0.00725364
0.0066396
0.0060263
0.00541969
0.00473649
0.0865001
0.0713259
0.0595293
0.0501634
0.0424563
0.0360128
0.0306299
0.0261612
0.0224711
0.0194322
0.0169298
0.0148649
0.0131547
0.0117307
0.0105374
0.00952932
0.00866961
0.00792801
0.00727876
0.00669604
0.00614925
0.00561672
0.00510877
0.00456389
0.0803268
0.0662585
0.0554601
0.0468526
0.0397161
0.033714
0.0286778
0.0244831
0.0210106
0.0181455
0.0157833
0.013833
0.0122178
0.0108746
0.0097515
0.00880641
0.00800512
0.00731975
0.00672677
0.00620284
0.00572097
0.0052641
0.00484331
0.00441225
0.075635
0.0622271
0.0521005
0.044047
0.0373518
0.031704
0.0269529
0.0229876
0.0196999
0.0169845
0.0147446
0.0128956
0.0113659
0.0100963
0.00903848
0.00815304
0.00740803
0.00677749
0.00623956
0.00577269
0.00535258
0.00496508
0.00461975
0.00428133
0.072003
0.058991
0.0493231
0.0416744
0.0353187
0.0299532
0.0254348
0.0216601
0.0185285
0.0159414
0.0138079
0.0120483
0.0105952
0.00939301
0.0083961
0.00756741
0.0068768
0.0062997
0.0058153
0.0054031
0.00504063
0.00471527
0.00443394
0.00416997
0.0691773
0.056395
0.0470354
0.0396776
0.0335794
0.0284361
0.0241055
0.0204878
0.017487
0.0150091
0.0129676
0.0112867
0.00990247
0.00876197
0.007822
0.00704733
0.00640916
0.00588379
0.00545079
0.00509005
0.00478025
0.00450934
0.00428137
0.00407656
0.0670019
0.0543333
0.045168
0.0380104
0.0321025
0.0271307
0.0229493
0.0194591
0.0165667
0.014181
0.0122187
0.0106069
0.00928426
0.0082002
0.00731335
0.00658992
0.00600197
0.00552606
0.00514161
0.00482838
0.0045657
0.00434161
0.00415753
0.0039993
0.0653756
0.0527315
0.0436685
0.0366366
0.0308624
0.0260188
0.0219529
0.0185643
0.0157601
0.0134512
0.0115564
0.0100047
0.00873699
0.00770432
0.0068668
0.0061916
0.00565118
0.00522189
0.00488246
0.00461223
0.00439092
0.00420647
0.00405818
0.00393638
0.0642329
0.0515377
0.0424986
0.0355285
0.0298391
0.0250855
0.0211053
0.0177946
0.0150604
0.0128143
0.0109759
0.0094761
0.00825685
0.00727062
0.0064785
0.00584821
0.00535217
0.00496603
0.00466756
0.00443552
0.00424996
0.00409873
0.00397951
0.00388609
0.0635328
0.0507171
0.0416315
0.0346659
0.0290172
0.0243193
0.0203973
0.0171431
0.0144619
0.0122651
0.010473
0.00901698
0.00783991
0.00689511
0.00614426
0.00555523
0.00509992
0.00475299
0.00449107
0.00429236
0.00413732
0.00401377
0.00391818
0.00384676
0.0632545
0.050249
0.0410503
0.0340355
0.028386
0.0237115
0.0198222
0.0166039
0.0139596
0.0117995
0.0100436
0.00862341
0.00748222
0.00657369
0.00585972
0.00530791
0.00488933
0.00457734
0.00434742
0.00417734
0.00404807
0.00394757
0.0038713
0.00381686
0.0633992
0.0501266
0.0407478
0.0336304
0.027939
0.0232563
0.0193748
0.0161727
0.0135495
0.0114136
0.00968398
0.00829174
0.00717995
0.00630227
0.00562047
0.00510153
0.00471538
0.00443394
0.00423152
0.00408563
0.00397789
0.00389657
0.00383627
0.00379493
0.0639927
0.0503585
0.0407267
0.03345
0.0276735
0.0229504
0.0190519
0.0158462
0.0132284
0.0111043
0.00939113
0.00801874
0.00692962
0.00607704
0.0054223
0.00493153
0.0045733
0.00431799
0.0041388
0.00401302
0.00392296
0.00385738
0.00381054
0.00377932
0.0650917
0.0509696
0.0409973
0.0335002
0.0275909
0.0227927
0.0188518
0.0156224
0.0129944
0.0108696
0.0091627
0.00780185
0.00672837
0.00589474
0.00526153
0.00479384
0.00445881
0.00422525
0.00406531
0.00395608
0.00388038
0.00382742
0.00379151
0.00376817
0.0667913
0.0520071
0.0415843
0.0337913
0.0276953
0.0227841
0.0187743
0.0155004
0.0128461
0.0107079
0.00899707
0.00763929
0.00657417
0.005753
0.00513542
0.00468539
0.00436862
0.00415245
0.00400805
0.00391223
0.00384816
0.00380519
0.00377749
0.00376045
0.0692143
0.0535421
0.0425207
0.034342
0.0279943
0.0229268
0.0188135
0.0154798
0.0127829
0.0106184
0.00889338
0.00753
0.00646575
0.00565031
0.00504215
0.0046041
0.00430046
0.00409725
0.00396467
0.00387926
0.00382433
0.00378922
0.00376781
0.00375563
0.0724892
0.0556678
0.0438453
0.0351669
0.0284954
0.023226
0.0189813
0.015553
0.0128012
0.010601
0.00885127
0.00747345
0.00640246
0.00558572
0.00498048
0.00454844
0.00425263
0.00405786
0.00393341
0.00385544
0.00380724
0.00377808
0.00376146
0.00375286
0.0767227
0.0584749
0.0455835
0.0362698
0.0291975
0.0236806
0.0192742
0.0157359
0.0129036
0.0106495
0.00886814
0.00746958
0.00638433
0.00555886
0.00494962
0.00451738
0.00422391
0.00403298
0.00391299
0.00383957
0.00379576
0.00377065
0.00375756
0.00375141
0.00550542
0.019602
0.0484544
0.0669109
0.0763218
0.0802238
0.0190243
0.0390108
0.0661271
0.0810827
0.0878846
0.0898981
0.024932
0.0565202
0.0802697
0.0914892
0.0951969
0.0949135
0.0288319
0.0688629
0.089789
0.0987037
0.100922
0.0989014
0.0345369
0.0775104
0.0969453
0.104621
0.106043
0.102882
0.0393587
0.0839051
0.102727
0.109948
0.111018
0.107129
0.0432136
0.0887756
0.107639
0.115017
0.116083
0.11178
0.0462034
0.0925424
0.111954
0.119998
0.121376
0.116948
0.0484387
0.0954701
0.115819
0.124971
0.12699
0.122742
0.0500144
0.0977191
0.119308
0.129964
0.132997
0.129261
0.0510055
0.099378
0.122443
0.13496
0.13944
0.136592
0.0514664
0.100465
0.125211
0.139898
0.146327
0.144808
0.0514849
0.100899
0.127578
0.144679
0.153613
0.153947
0.0513183
0.100578
0.129436
0.14919
0.161148
0.163996
0.0508799
0.0994162
0.1306
0.153236
0.16871
0.174843
0.0500866
0.0973203
0.130814
0.156488
0.175966
0.186292
0.0488459
0.094141
0.129825
0.158505
0.1824
0.197958
0.0470438
0.0897074
0.127181
0.158716
0.187264
0.209143
0.0445248
0.0838714
0.12256
0.156706
0.189524
0.218899
0.0410696
0.0765082
0.115621
0.151434
0.188132
0.225889
0.0364162
0.0675518
0.10604
0.142236
0.181292
0.228145
0.0303014
0.0568416
0.0932507
0.12791
0.166128
0.223842
0.0219705
0.0431395
0.0753404
0.10608
0.138861
0.20417
0.00679404
0.0169806
0.0384736
0.063963
0.0944762
0.121247
0.0810624
0.0619291
0.0477006
0.0376261
0.0300891
0.024285
0.0196897
0.0160212
0.0130974
0.010778
0.0089482
0.00751586
0.00640834
0.00556847
0.00494944
0.00451066
0.00421383
0.00402198
0.0039027
0.00383088
0.00378912
0.00376641
0.00375542
0.00375081
0.0843856
0.0653086
0.0500225
0.0391757
0.0311488
0.0250311
0.0202252
0.0164089
0.0133789
0.0109823
0.00909606
0.00762213
0.00648322
0.00561906
0.0049815
0.00452913
0.00422286
0.00402513
0.0039027
0.00382959
0.00378759
0.00376535
0.00375486
0.00375066
0.0872351
0.0683488
0.0523911
0.0408598
0.0323552
0.0259119
0.0208795
0.0169004
0.0137506
0.0112647
0.00931138
0.0077862
0.00660734
0.00571129
0.00504796
0.00457494
0.00425278
0.00404366
0.00391371
0.00383593
0.00379114
0.0037672
0.00375577
0.00375097
0.0900025
0.071203
0.0547846
0.0426608
0.0337005
0.0269262
0.0216545
0.017499
0.0142165
0.0116295
0.00959824
0.00801212
0.00678457
0.0058486
0.00515183
0.00465078
0.00430592
0.00407953
0.00393729
0.00385118
0.00380077
0.00377264
0.00375856
0.00375204
0.0930053
0.0741005
0.0572685
0.0446002
0.0351939
0.0280805
0.0225562
0.0182104
0.0147823
0.012082
0.0099618
0.00830476
0.00701949
0.00603528
0.0052972
0.00476058
0.00438588
0.00413576
0.0039758
0.00387698
0.00381746
0.00378267
0.00376391
0.00375458
0.0964249
0.0772432
0.0599441
0.046725
0.0368588
0.0293889
0.023595
0.0190434
0.0154554
0.0126291
0.0104083
0.00866991
0.00731751
0.00627649
0.00548911
0.00490925
0.00449725
0.00421641
0.00403256
0.00391596
0.00384329
0.00379879
0.0037732
0.00375933
0.100398
0.0808012
0.0629246
0.0490973
0.0387296
0.0308725
0.0247854
0.0200091
0.0162452
0.0132789
0.0109452
0.00911433
0.00768493
0.00657822
0.00573338
0.00510248
0.00464553
0.00432653
0.00411198
0.00397175
0.00388117
0.00382317
0.00378769
0.00376716
0.105053
0.0849275
0.0663275
0.0517889
0.0408494
0.0325583
0.026146
0.0211213
0.0171629
0.014041
0.0115808
0.00964578
0.00812895
0.0069473
0.00603663
0.00534685
0.00483723
0.00447237
0.00421969
0.00404914
0.00393487
0.00385836
0.00380874
0.00377874
0.110521
0.0897734
0.0702794
0.0548834
0.0432706
0.0344798
0.0276992
0.0223964
0.0182213
0.0149263
0.012325
0.0102731
0.00865788
0.00739165
0.00640661
0.00565008
0.00508014
0.00466157
0.00436276
0.00415408
0.00400884
0.00390745
0.00383904
0.00379574
0.116942
0.0955021
0.0749207
0.0584798
0.0460564
0.0366774
0.0294719
0.0238534
0.0194352
0.0159471
0.0131886
0.0110063
0.00928114
0.00792037
0.00685222
0.00602106
0.00538317
0.00490297
0.00454954
0.00429393
0.00410914
0.00397525
0.00388201
0.0038202
0.124462
0.102295
0.0804147
0.0626969
0.0492848
0.0392005
0.0314963
0.0255148
0.0208214
0.0171169
0.0141834
0.0118564
0.0100091
0.00854345
0.00738321
0.00646938
0.00575592
0.0052062
0.00478949
0.00447752
0.00424345
0.00406774
0.00394161
0.00385405
0.133235
0.110357
0.0869548
0.0676806
0.0530526
0.0421102
0.0338113
0.0274066
0.0223988
0.0184509
0.0153224
0.012835
0.0108529
0.00927148
0.00800985
0.00700513
0.00620842
0.00558139
0.00509285
0.00471483
0.00442074
0.00419208
0.00402262
0.00389951
0.143404
0.119914
0.0947699
0.0736115
0.0574818
0.0454835
0.0364652
0.0295599
0.024189
0.0199653
0.016619
0.0139541
0.0118236
0.0101154
0.00874274
0.00763868
0.00675099
0.006039
0.00547032
0.00501661
0.00465117
0.00435671
0.00413088
0.00395923
0.155092
0.131204
0.104124
0.0807104
0.0627265
0.0494181
0.039518
0.0320128
0.0262172
0.0216783
0.0180877
0.0152262
0.0129328
0.0110859
0.00959246
0.00838051
0.00739405
0.00658959
0.00593276
0.00539396
0.00494557
0.0045712
0.00427334
0.00403631
0.168358
0.144467
0.115307
0.0892404
0.0689797
0.0540387
0.0430464
0.0348122
0.0285134
0.0236104
0.0197436
0.0166637
0.0141914
0.0121936
0.0105693
0.00924084
0.0081479
0.00724356
0.00649078
0.0058578
0.00531495
0.00484575
0.0044578
0.00413429
0.183098
0.159927
0.128604
0.0994959
0.0764758
0.0595032
0.0471483
0.0380176
0.0311143
0.0257854
0.0216033
0.0182794
0.0156103
0.0134484
0.0116829
0.0102294
0.00902234
0.00801089
0.00715462
0.00641865
0.00577001
0.00519058
0.0046925
0.00425683
0.19908
0.17766
0.144225
0.111769
0.0854835
0.0660066
0.0519488
0.0417053
0.0340665
0.0282323
0.0236862
0.0200869
0.0172003
0.0148597
0.0129421
0.0113549
0.0100264
0.00890089
0.00793386
0.00708637
0.00632081
0.00561552
0.00498549
0.00440732
0.216129
0.197251
0.162201
0.126288
0.0962816
0.0737788
0.0576046
0.0459732
0.0374294
0.0309879
0.0260155
0.022102
0.0189728
0.0164366
0.0143552
0.0126253
0.0111681
0.00992197
0.00883735
0.00787022
0.0069769
0.00612987
0.00534431
0.00458809
0.233541
0.217957
0.182348
0.143129
0.109107
0.0830682
0.0643042
0.0509454
0.0412803
0.0340996
0.0286208
0.0243439
0.020941
0.0181891
0.0159301
0.0140481
0.0124548
0.0110818
0.00987324
0.00877898
0.0077476
0.00674293
0.00577618
0.00479974
0.250143
0.238504
0.204093
0.16208
0.124059
0.0940977
0.0722572
0.0567736
0.045718
0.0376295
0.0315415
0.0268381
0.0231222
0.0201295
0.0176767
0.0156314
0.0138942
0.0123879
0.0110497
0.00982156
0.00864283
0.00746512
0.00628923
0.00504085
0.26422
0.257178
0.226109
0.182446
0.140956
0.106982
0.0816614
0.0636303
0.0508648
0.0416584
0.0348299
0.0296192
0.0255403
0.0222755
0.0196088
0.017387
0.0154969
0.0138509
0.0123772
0.0110092
0.0096752
0.00831053
0.00689553
0.00530893
0.273128
0.271487
0.246271
0.202933
0.159187
0.121604
0.0926373
0.0716854
0.0568627
0.0462872
0.0385548
0.0327344
0.0282292
0.0246532
0.0217483
0.0193351
0.0172826
0.0154904
0.013876
0.0123628
0.010867
0.00930405
0.00761902
0.0056045
0.270161
0.278331
0.261265
0.221922
0.177687
0.137504
0.105134
0.0810589
0.0638569
0.0516349
0.0428031
0.0362464
0.031236
0.0273007
0.0241297
0.0215099
0.0192879
0.0173473
0.0155923
0.013934
0.0122753
0.0105091
0.00852471
0.00595606
0.226879
0.271486
0.265706
0.237175
0.19496
0.153831
0.118837
0.0917514
0.0719629
0.0578272
0.0476773
0.0402329
0.0346207
0.0302687
0.0268008
0.0239625
0.0215735
0.0194983
0.0176259
0.0158536
0.0140704
0.0121437
0.00988349
0.00671151
)
;

boundaryField
{
    rotor
    {
        type            kqRWallFunction;
        value           nonuniform List<scalar> 
144
(
0.00510014
0.0154915
0.0306281
0.042583
0.0470761
0.0551844
0.00510014
0.0182549
0.0256274
0.0311639
0.0357261
0.0394694
0.0425238
0.0449915
0.0469535
0.04848
0.0496432
0.0504161
0.0505992
0.0502812
0.0493537
0.0478075
0.0456177
0.0427415
0.0390991
0.0344833
0.0284142
0.0249581
0.0198692
0.00484077
0.00484077
0.0165241
0.0353115
0.0614733
0.089796
0.117748
0.00377894
0.0115384
0.0387324
0.0681985
0.0931185
0.115264
0.00377894
0.0151243
0.0199336
0.022509
0.0242374
0.0252989
0.0269044
0.0281437
0.0290286
0.0295805
0.0298022
0.0297594
0.0294818
0.0290631
0.0284744
0.027689
0.0266604
0.0251161
0.0244196
0.0235282
0.0221828
0.0203472
0.0166476
0.00464736
0.00464736
0.00889156
0.0136002
0.0189182
0.0221261
0.0302925
0.00574365
0.0229945
0.0542389
0.0871244
0.127699
0.143336
0.00574365
0.0196763
0.0237068
0.0255173
0.0284569
0.0306503
0.0322686
0.0333749
0.0340419
0.0343399
0.0343334
0.0340828
0.0335892
0.0328028
0.0317044
0.030269
0.0284786
0.0263189
0.0249571
0.0239259
0.0224389
0.0204339
0.0165881
0.0043652
0.0043652
0.00690412
0.0147334
0.0372214
0.0625712
0.0729145
0.00550542
0.019602
0.0484544
0.0669109
0.0763218
0.0802238
0.00550542
0.0190243