/*--------------------------------*- C++ -*----------------------------------*\
  =========                 |
  \\      /  F ield         | OpenFOAM: The Open Source CFD Toolbox
   \\    /   O peration     | Website:  https://openfoam.org
    \\  /    A nd           | Version:  11
     \\/     M anipulation  |
\*---------------------------------------------------------------------------*/
FoamFile
{
    format      ascii;
    class       volScalarField;
    location    "0.86";
    object      epsilon;
}
// * * * * * * * * * * * * * * * * * * * * * * * * * * * * * * * * * * * * * //

dimensions      [0 2 -3 0 0 0 0];

internalField   nonuniform List<scalar> 
2880
(
2.91176
8.8435
11.529
12.4799
10.8326
55.6691
1.10536
4.11673
5.6678
6.9472
10.4094
17.9546
1.60888
3.16343
4.21914
5.31733
7.2701
10.4412
2.24654
2.83514
3.6178
4.56362
5.92832
7.54648
2.8578
2.70805
3.30293
4.11984
5.14996
6.08822
3.41204
2.66261
3.11674
3.82048
4.62166
5.19726
3.89109
2.65293
2.99609
3.60239
4.23565
4.59039
4.28534
2.65614
2.91167
3.43645
3.94336
4.15195
4.59099
2.65982
2.84846
3.30773
3.71847
3.8278
4.80788
2.65741
2.79845
3.20804
3.54651
3.58868
4.938
2.64594
2.75779
3.13248
3.41996
3.41756
4.98433
2.62489
2.72485
3.07902
3.33485
3.30469
4.95094
2.5952
2.69943
3.04767
3.29003
3.24683
4.84182
2.55863
2.68244
3.03787
3.28316
3.24118
4.65931
2.51721
2.67491
3.05131
3.31708
3.29169
4.4002
2.47248
2.67894
3.09052
3.39624
3.40611
4.06407
2.42735
2.69808
3.15921
3.52857
3.59911
3.65292
2.38671
2.73817
3.26449
3.72528
3.89843
3.17157
2.35944
2.80981
3.41941
4.00546
4.35684
2.62934
2.36004
2.93364
3.6486
4.40428
5.08305
2.04265
2.42099
3.15481
4.00355
4.99253
6.33036
1.4388
2.62434
3.59183
4.62032
5.91838
8.83603
1.00924
3.28516
4.67373
5.97071
7.51559
15.2933
2.36726
6.6987
9.14909
10.7583
10.9861
45.9638
20.9734
8.25634
3.79512
1.78564
0.812191
0.363742
0.166265
0.0801378
0.0413653
0.0228699
0.0135078
0.00840203
0.00545559
0.00368353
0.00258281
0.00188026
0.00142072
0.00111286
0.000901204
0.000750737
0.00063852
0.000551424
0.000484544
0.000432907
12.4156
6.47615
3.25882
1.54946
0.700252
0.311376
0.142018
0.0686249
0.0355693
0.0197251
0.0116614
0.00723697
0.00467851
0.00314261
0.00219354
0.00159281
0.00120434
0.000947962
0.000775052
0.00065499
0.000567839
0.000502167
0.000453342
0.000417196
8.83545
5.28297
2.78656
1.33134
0.59941
0.265876
0.121543
0.0590632
0.0307911
0.0171463
0.0101452
0.00628091
0.00404311
0.00270307
0.00187987
0.00136346
0.0010336
0.000819407
0.000677945
0.000582251
0.000514843
0.000465645
0.000430278
0.000405229
6.89783
4.41234
2.38229
1.13892
0.511801
0.227276
0.104483
0.0511681
0.0268571
0.0150284
0.00889796
0.00549572
0.00352384
0.00234657
0.00162786
0.0011812
0.000899528
0.000719743
0.000603671
0.000527371
0.000475385
0.000438747
0.000413333
0.000396175
5.65923
3.74016
2.042
0.974764
0.43785
0.195165
0.0904268
0.0446826
0.0236232
0.0132852
0.00787108
0.00485116
0.0031002
0.00205825
0.00142618
0.00103705
0.000794844
0.000643001
0.0005473
0.000486304
0.000446242
0.000419099
0.00040101
0.000389422
4.80311
3.21772
1.76096
0.838256
0.376756
0.168844
0.078942
0.0393763
0.0209689
0.011851
0.00702641
0.0043231
0.00275564
0.00182599
0.00126555
0.000923702
0.000713698
0.000584427
0.000504951
0.000455899
0.000424931
0.000404893
0.000392187
0.000384505
4.18313
2.80879
1.53204
0.726775
0.327057
0.147497
0.0696175
0.0350496
0.018795
0.0106731
0.00633344
0.00389208
0.00247672
0.00163996
0.00113847
0.000835273
0.000651388
0.000540234
0.000473564
0.000433707
0.000409547
0.000394721
0.000385978
0.000380998
3.722
2.48806
1.34768
0.636976
0.287095
0.130326
0.0620863
0.0315342
0.0170202
0.00970916
0.00576761
0.00354242
0.0022526
0.00149223
0.00103892
0.000767071
0.000604189
0.000507432
0.000450744
0.000417865
0.000398722
0.000387631
0.000381641
0.000378509
3.37566
2.23769
1.20096
0.565518
0.25528
0.116613
0.0560351
0.0286912
0.0155787
0.00892503
0.00530915
0.00326149
0.00207462
0.00137654
0.000962193
0.00071548
0.000569256
0.000483743
0.000434674
0.000406958
0.0003914
0.000382939
0.000378792
0.000376837
3.11769
2.04488
1.08594
0.50941
0.230216
0.105747
0.0512039
0.026407
0.0144178
0.00829329
0.00494209
0.00303913
0.00193587
0.00128796
0.000904685
0.000677762
0.000544459
0.00046748
0.000424008
0.000399938
0.000386819
0.000380157
0.000377096
0.000375818
2.93158
1.90045
0.997745
0.466129
0.210738
0.0972277
0.0473807
0.024587
0.013498
0.00779174
0.00465346
0.00286714
0.00183082
0.00122263
0.00086357
0.000651806
0.000528175
0.000457374
0.00041776
0.000396036
0.000384446
0.000378747
0.000376255
0.000375302
2.80721
1.79788
0.932523
0.433649
0.195911
0.090656
0.0443992
0.0231596
0.0127785
0.00740169
0.00443268
0.00273886
0.00175504
0.00117743
0.000836609
0.00063594
0.000519127
0.000452442
0.000415208
0.000394791
0.0003839
0.000378495
0.000376084
0.000375168
2.73919
1.73295
0.887406
0.410409
0.185003
0.0857177
0.0421263
0.0220649
0.0122284
0.00710792
0.0042711
0.00264892
0.00170496
0.00114994
0.000822085
0.000628907
0.000516386
0.000451928
0.000415767
0.000395709
0.000384725
0.00037906
0.000376368
0.000375221
2.72633
1.70345
0.860452
0.395271
0.177462
0.082168
0.0404557
0.0212546
0.011824
0.00689811
0.00416166
0.00259296
0.00167784
0.00113837
0.000818797
0.000629724
0.000518906
0.000455312
0.000419116
0.000398609
0.000387013
0.000380563
0.000377141
0.000375422
2.77043
1.7091
0.850617
0.387474
0.17288
0.0798185
0.039303
0.0206894
0.0115463
0.00676209
0.00409852
0.00256754
0.00167157
0.00114107
0.000825033
0.000637166
0.000526805
0.000462411
0.000425084
0.000403343
0.000390528
0.000382915
0.000378423
0.000375809
2.87927
1.75172
0.857801
0.386619
0.170978
0.0785245
0.0386005
0.0203372
0.0113794
0.00669127
0.00407684
0.00256959
0.00168353
0.00115627
0.000840721
0.000652153
0.000539736
0.000473134
0.000433659
0.000409945
0.000395341
0.000386103
0.000380183
0.000376386
3.0662
1.83527
0.883042
0.392526
0.171554
0.0781848
0.0382966
0.0201713
0.0113095
0.00667799
0.00409172
0.00259591
0.00171279
0.00118457
0.000866393
0.000673972
0.000557712
0.00048756
0.000444953
0.000418533
0.000401565
0.000390228
0.000382497
0.0003772
3.35396
1.96687
0.928021
0.405265
0.17445
0.0786809
0.0383358
0.0201669
0.0113239
0.00671541
0.00414012
0.0026459
0.00175948
0.0012259
0.000901349
0.000702739
0.000580906
0.000505899
0.000459177
0.0004293
0.000409369
0.000395441
0.000385496
0.000378346
3.77992
2.15815
0.99444
0.424963
0.179533
0.0799183
0.0386649
0.020296
0.0114094
0.00679693
0.00421888
0.00271822
0.00182285
0.00127947
0.000945596
0.000738679
0.000609627
0.000528485
0.000476648
0.000442526
0.000418996
0.000401951
0.000389355
0.00037994
4.40615
2.42584
1.08487
0.451715
0.18662
0.0817772
0.0392244
0.0205306
0.0115522
0.00691521
0.00432367
0.00280996
0.00190117
0.00134486
0.000999278
0.00078213
0.000644308
0.00055577
0.000497792
0.000458585
0.000430759
0.000410015
0.000394278
0.000382118
5.34272
2.79387
1.20193
0.485267
0.195371
0.084088
0.03994
0.0208374
0.0117371
0.00706248
0.00445039
0.00291908
0.0019936
0.00142187
0.00106256
0.000833479
0.000685451
0.000588297
0.000523133
0.000477945
0.000445049
0.000419943
0.000400495
0.000385027
6.80108
3.29565
1.34645
0.524346
0.205119
0.0865938
0.0407154
0.0211771
0.011948
0.00723049
0.00459466
0.00304331
0.00209911
0.00151016
0.00113552
0.000893081
0.000733568
0.000626646
0.000553255
0.000501143
0.000462328
0.000432108
0.000408278
0.000388853
9.29863
3.9855
1.51326
0.565374
0.214632
0.0889264
0.041433
0.0215062
0.0121687
0.00741101
0.00475205
0.00318027
0.00221646
0.00160924
0.00121814
0.000961214
0.000789129
0.000671403
0.000588794
0.000528817
0.000483191
0.000446978
0.000417775
0.000393693
14.8871
4.86257
1.67538
0.600174
0.221976
0.090628
0.0419689
0.0217855
0.012381
0.00759639
0.0049185
0.00332766
0.00234446
0.0017186
0.00131037
0.00103816
0.000852639
0.000723213
0.000630465
0.000561673
0.000508238
0.000464951
0.000429203
0.000399616
3.13601
2.36451
2.38378
2.2251
2.53798
6.17409
1.05725
1.13526
1.3718
1.77552
4.00454
11.3633
0.273574
1.0399
1.44991
2.35394
5.98897
11.1106
1.34977
1.32268
1.74739
3.13913
7.15906
10.2256
1.73502
1.55225
2.10153
3.89996
7.46169
9.09481
2.00351
1.73395
2.44716
4.50091
7.34279
8.01576
2.22436
1.8904
2.75433
4.86731
6.95837
7.05892
2.41435
2.03038
3.00858
5.01621
6.52401
6.2266
2.57666
2.15601
3.20657
5.02716
6.10218
5.52487
2.71196
2.26705
3.35161
4.95435
5.71235
4.94945
2.8213
2.35782
3.44756
4.83167
5.36608
4.48876
2.90144
2.42331
3.49983
4.69291
5.06872
4.12966
2.93906
2.45892
3.51511
4.5555
4.82235
3.86043
2.9324
2.46665
3.50091
4.42974
4.62757
3.67164
2.88132
2.45023
3.46474
4.32154
4.48282
3.55988
2.78609
2.41504
3.41487
4.2349
4.38546
3.53519
2.64615
2.36993
3.36043
4.17455
4.34787
3.57567
2.46038
2.32722
3.31258
4.14613
4.36979
3.71253
2.22671
2.30357
3.28537
4.15595
4.46258
3.94333
1.94204
2.31783
3.29918
4.21068
4.65346
4.27144
1.60106
2.40607
3.394
4.34659
4.94656
4.73417
1.19589
2.64913
3.67935
4.6524
5.38707
5.54888
0.899326
3.33977
4.53903
5.47875
6.17124
7.92597
2.5892
6.33054
8.70784
9.23365
8.79547
26.3199
13.3503
4.91062
1.72728
0.613489
0.224704
0.0912374
0.042221
0.021986
0.0125731
0.00778099
0.00509085
0.00348367
0.00248215
0.00183787
0.0014123
0.00112432
0.000924723
0.000782831
0.000679065
0.000600465
0.00053811
0.000486522
0.00044297
0.000406776
10.9523
4.5664
1.67981
0.604398
0.222775
0.0907874
0.042182
0.0221004
0.0127407
0.00796188
0.00526718
0.00364714
0.00262896
0.001967
0.00152426
0.00122032
0.00100619
0.000851185
0.000735558
0.000646122
0.000573636
0.000512374
0.000459599
0.00041538
8.97551
4.02101
1.58231
0.580863
0.2174
0.0894955
0.0419088
0.0221345
0.0128873
0.00813879
0.00544694
0.0038177
0.00278485
0.00210627
0.00164682
0.00132697
0.00109806
0.000929393
0.000801109
0.000699796
0.000615896
0.000543458
0.000479868
0.000425714
7.3931
3.44648
1.44904
0.549683
0.209521
0.0875075
0.0414365
0.0221077
0.013017
0.00831325
0.00563077
0.00399579
0.0029503
0.00225631
0.0017808
0.00144529
0.00120147
0.00101873
0.00087706
0.000762837
0.000666196
0.00058103
0.000505084
0.000438428
6.13579
2.94805
1.28911
0.512579
0.200097
0.0850271
0.040813
0.0220365
0.013135
0.00848824
0.00582043
0.00418262
0.00312633
0.00241811
0.00192727
0.00157642
0.00131773
0.00112062
0.000964972
0.000836927
0.000726284
0.000626735
0.000536296
0.000454068
5.14015
2.53448
1.14299
0.472
0.190148
0.0822827
0.0401026
0.0219424
0.0132506
0.00866872
0.00601911
0.00438048
0.00331475
0.00259327
0.00208773
0.00172191
0.00144842
0.00123676
0.00106668
0.000923993
0.000798085
0.000682286
0.000574763
0.00047317
4.35785
2.19695
1.01513
0.431363
0.179829
0.0794954
0.0393855
0.0218569
0.0133773
0.0088623
0.00623183
0.00459307
0.00351852
0.00278431
0.00226449
0.00188394
0.00159574
0.00136941
0.00118448
0.0010264
0.000883935
0.000749813
0.000622153
0.000496518
3.74817
1.9241
0.907183
0.395848
0.16985
0.076875
0.0387485
0.0218136
0.0135327
0.00907969
0.00646598
0.00482599
0.0037422
0.00299517
0.00246107
0.00206582
0.00176283
0.00152162
0.00132144
0.00114719
0.000986817
0.0008321
0.000680747
0.000525186
3.27631
1.7056
0.81825
0.365648
0.160859
0.0745952
0.0382637
0.0218429
0.0137378
0.00933484
0.00673166
0.00508717
0.00399245
0.00323172
0.00268287
0.00227257
0.00195448
0.00169799
0.00148194
0.00129057
0.00111079
0.000932964
0.000753739
0.000560615
2.91403
1.53276
0.746697
0.340855
0.153309
0.072811
0.0380012
0.0219984
0.0140189
0.00964505
0.00704194
0.00538737
0.00427869
0.00350256
0.00293797
0.00251196
0.0021782
0.00190576
0.00167295
0.00146317
0.00126208
0.00105821
0.000846053
0.000604841
2.63939
1.39855
0.690859
0.321496
0.147566
0.0716685
0.0379882
0.0223167
0.0144049
0.0100314
0.00741349
0.0057408
0.00461373
0.00381983
0.00323823
0.00279588
0.00244605
0.0021572
0.00190679
0.00167708
0.00145227
0.00121871
0.000967217
0.000661702
2.43588
1.29764
0.649251
0.307425
0.144414
0.0712844
0.0383569
0.0228481
0.0149288
0.0105193
0.00786728
0.00616588
0.00501466
0.00420008
0.00360044
0.00314192
0.00277698
0.00247312
0.00220648
0.00195764
0.00170864
0.00144282
0.00114441
0.000746931
2.29189
1.22627
0.620626
0.298616
0.143346
0.0718177
0.03922
0.0236546
0.0156322
0.0111409
0.00843028
0.00668651
0.0055037
0.00466503
0.00404682
0.00357403
0.00319818
0.00288589
0.00261236
0.00235717
0.00210087
0.00182211
0.001491
0.00099001
2.19993
1.1821
0.604221
0.296691
0.144498
0.0735491
0.0406933
0.0248164
0.0165724
0.01194
0.00913858
0.00733418
0.00610962
0.00524199
0.0046045
0.00412061
0.00374146
0.0034342
0.00317611
0.00295164
0.00275127
0.00257646
0.00246394
0.00252751
2.15956
1.16498
0.602144
0.299951
0.148579
0.076743
0.0429493
0.0264447
0.0178291
0.0129774
0.0100418
0.00815164
0.00687055
0.00596597
0.00530642
0.00481373
0.00443947
0.00415336
0.00393762
0.00378432
0.00369376
0.00368095
0.00379404
0.00410319
2.16416
1.17572
0.613741
0.310344
0.156248
0.0817909
0.0462355
0.0287053
0.0195178
0.0143407
0.011211
0.00919932
0.0078398
0.006885
0.0061966
0.00569424
0.0053307
0.00507977
0.00493031
0.00488236
0.00493934
0.00511733
0.00546211
0.00597857
2.22646
1.21818
0.642247
0.329553
0.168536
0.0893248
0.0509406
0.0318479
0.0218112
0.0161591
0.01275
0.0105653
0.00909468
0.00806843
0.0073379
0.00681934
0.0064668
0.00625887
0.00619189
0.00626514
0.00649039
0.00688747
0.00747444
0.00821247
2.35699
1.30051
0.692571
0.360487
0.187173
0.100376
0.0576753
0.0362617
0.0249752
0.0186297
0.0148158
0.0123817
0.0107505
0.00961917
0.00882307
0.00827257
0.00792217
0.0077558
0.00777532
0.00797137
0.00838688
0.00901737
0.0098711
0.0108703
2.57516
1.43607
0.772958
0.408026
0.215015
0.116627
0.0674516
0.0425761
0.0294341
0.0220629
0.0176529
0.0148525
0.0129843
0.0116945
0.0107932
0.0101803
0.00980903
0.0096691
0.00975603
0.0100768
0.010687
0.011566
0.0127203
0.0140382
2.91396
1.6465
0.897364
0.480661
0.257119
0.141052
0.0820342
0.0518708
0.0359016
0.0269713
0.0216585
0.0183047
0.0160774
0.0145429
0.0134708
0.0127418
0.0123041
0.0121525
0.012277
0.0126953
0.0134855
0.0146201
0.0161104
0.0178188
3.39505
1.95689
1.0863
0.591851
0.321494
0.178421
0.104355
0.0660152
0.045623
0.0342413
0.0275086
0.0232862
0.0204951
0.0185726
0.0172205
0.0162846
0.0157001
0.0154635
0.0155742
0.0160274
0.0169468
0.0183209
0.0201713
0.0223533
4.08136
2.3915
1.36674
0.76623
0.425766
0.239618
0.140775
0.088802
0.0610042
0.0455215
0.0364227
0.0307611
0.0270411
0.02448
0.0226611
0.0213659
0.0204981
0.0200441
0.0200474
0.0204341
0.0213697
0.022921
0.0251209
0.0278626
5.19056
2.97412
1.73964
1.01194
0.583205
0.337439
0.201112
0.126999
0.0865983
0.0639589
0.0506942
0.0425027
0.0371624
0.0334984
0.0308775
0.0289603
0.0275825
0.0267011
0.0263654
0.0265735
0.0273341
0.0288829
0.0313471
0.0347207
8.05402
4.26128
2.40972
1.41855
0.842588
0.50296
0.305878
0.194085
0.131318
0.0956723
0.0747464
0.0618817
0.0535581
0.0478855
0.0438268
0.0408101
0.0385309
0.036867
0.0358312
0.0355356
0.0359287
0.0371267
0.039584
0.0436023
2.05094
2.45706
2.95905
3.03051
2.8169
2.61654
0.888282
1.0415
1.29489
1.42644
1.46898
1.59881
0.23741
0.783648
0.994676
1.10429
1.17974
1.32817
0.259769
0.740755
0.909062
1.00577
1.09113
1.22946
0.274853
0.76766
0.889476
0.978052
1.06799
1.19741
1.21479
0.840507
0.896803
0.978275
1.07135
1.19553
1.37862
0.894956
0.916168
0.992378
1.08778
1.2083
1.52107
0.935765
0.938673
1.01264
1.10948
1.22657
1.63952
0.965433
0.960668
1.03515
1.13233
1.24539
1.73274
0.986322
0.981203
1.05779
1.15418
1.26209
1.80073
1.0009
1.00042
1.07968
1.17411
1.27549
1.84479
1.01162
1.01893
1.10076
1.19215
1.28551
1.86238
1.01972
1.03736
1.12174
1.20901
1.29299
1.85061
1.02527
1.05659
1.1438
1.22608
1.29959
1.80582
1.02837
1.07783
1.16862
1.24546
1.30778
1.72825
1.02956
1.10271
1.19858
1.27009
1.32099
1.61905
1.0298
1.13355
1.23706
1.30419
1.34396
1.48068
1.03066
1.17376
1.28916
1.35404
1.38359
1.32035
1.03425
1.22878
1.3626
1.42959
1.45109
0.280973
1.04277
1.30766
1.47127
1.54871
1.56616
0.263386
1.07552
1.42909
1.64309
1.74734
1.76894
0.240536
1.16708
1.64114
1.94608
2.11021
2.15866
0.887831
1.43329
2.12383
2.61161
2.90304
3.0554
1.97643
2.62758
3.99938
5.00023
5.50126
6.04015
5.69595
4.68407
3.06925
1.94528
1.21991
0.765539
0.485551
0.315903
0.214633
0.154442
0.118267
0.0959335
0.0815951
0.0719537
0.065138
0.0600823
0.0561847
0.0531377
0.0508476
0.0493873
0.0489482
0.0494893
0.0513636
0.0556884
3.34076
4.2425
3.68817
2.63744
1.77495
1.16262
0.763755
0.511919
0.354419
0.256365
0.194984
0.155981
0.130576
0.11345
0.101387
0.0924722
0.0855814
0.0800691
0.0756041
0.0721112
0.0697174
0.0687714
0.0695842
0.0732964
2.15947
3.44994
3.61901
3.29457
2.60525
1.89366
1.31366
0.906646
0.641329
0.467769
0.354102
0.27869
0.227716
0.192478
0.16745
0.149196
0.135618
0.125325
0.11705
0.110167
0.104528
0.100268
0.0984195
0.100657
1.70167
2.67137
3.32983
3.43337
3.25917
2.84361
2.29675
1.76941
1.31461
0.97585
0.743568
0.579943
0.463196
0.379664
0.319138
0.274527
0.240875
0.214692
0.194026
0.177643
0.164661
0.154401
0.145907
0.144714
1.52161
2.18801
2.848
3.28363
3.43918
3.38566
3.20094
2.85828
2.47172
2.07232
1.69636
1.36948
1.09868
0.891658
0.732755
0.608884
0.511532
0.434823
0.374635
0.327467
0.290134
0.260606
0.236222
0.22146
1.44794
1.92904
2.47747
2.96611
3.32184
3.51822
3.57749
3.52915
3.40316
3.18255
2.91915
2.62986
2.32949
2.02501
1.73415
1.46726
1.22942
1.02414
0.85326
0.714643
0.602926
0.513728
0.443009
0.383838
1.42062
1.79181
2.23585
2.68357
3.07936
3.39424
3.61033
3.74456
3.7943
3.7732
3.70141
3.56427
3.38285
3.16476
2.91776
2.65107
2.37333
2.09297
1.81795
1.55618
1.31776
1.1058
0.932467
0.762274
1.41278
1.71462
2.07868
2.46547
2.83802
3.17073
3.44789
3.66473
3.81887
3.91448
3.95177
3.93769
3.88353
3.7791
3.633
3.45413
3.24679
3.015
2.76331
2.49672
2.22288
1.94838
1.69651
1.43029
1.41206
1.66529
1.96727
2.29381
2.62008
2.92642
3.19902
3.42991
3.61481
3.75256
3.84267
3.88709
3.8874
3.85248
3.77626
3.66263
3.52066
3.35405
3.16717
2.96509
2.75118
2.52836
2.31122
2.09754
1.41197
1.62672
1.8774
2.14785
2.42049
2.68042
2.91631
3.12064
3.28891
3.41888
3.51
3.56351
3.58181
3.56969
3.52978
3.46063
3.36893
3.25712
3.12719
2.9811
2.82362
2.6633
2.51507
2.39247
1.40913
1.59042
1.79611
2.01448
2.23233
2.43814
2.62296
2.7808
2.90811
3.00334
3.06672
3.1002
3.10756
3.09221
3.05739
3.00574
2.94112
2.86651
2.78436
2.69719
2.60842
2.52394
2.45054
2.38339
1.40252
1.553
1.71799
1.88839
2.0538
2.2053
2.33623
2.4425
2.52227
2.57568
2.60366
2.61113
2.60187
2.57946
2.54652
2.50556
2.46106
2.41537
2.36966
2.32438
2.28065
2.24037
2.2036
2.15516
1.39274
1.51435
1.64257
1.77002
1.88838
1.99094
2.07339
2.13401
2.17276
2.19151
2.19601
2.18927
2.17605
2.16152
2.15049
2.14535
2.14352
2.14343
2.14261
2.13955
2.13293
2.12126
2.10061
2.06076
1.38166
1.47652
1.57253
1.66358
1.74311
1.80657
1.85213
1.87997
1.89277
1.8965
1.89694
1.90157
1.91579
1.93885
1.96888
2.00263
2.03599
2.065
2.08869
2.10741
2.12024
2.12644
2.12485
2.13104
1.37225
1.44308
1.51255
1.57549
1.62685
1.66417
1.68731
1.70009
1.70909
1.72164
1.74432
1.78021
1.82602
1.8793
1.93533
1.98891
2.03559
2.0722
2.09666
2.11044
2.11504
2.11104
2.10853
2.14614
1.36825
1.41879
1.46871
1.51344
1.54921
1.57531
1.59451
1.61266
1.63639
1.67198
1.72347
1.79114
1.87155
1.9558
2.03269
2.09138
2.12358
2.12497
2.09726
2.04691
1.9783
1.89663
1.8225
1.84099
1.37463
1.40944
1.44819
1.48625
1.52064
1.55197
1.58449
1.6249
1.67993
1.75475
1.8503
1.96113
2.07503
2.17525
2.24492
2.2707
2.2441
2.15396
2.03285
1.8866
1.72463
1.55568
1.38826
1.32877
1.39785
1.42206
1.45944
1.5038
1.55233
1.60662
1.67174
1.75347
1.85688
1.98298
2.12566
2.27016
2.39535
2.47888
2.50336
2.45362
2.31008
2.12806
1.91395
1.68892
1.47047
1.2695
1.09124
1.01092
1.44695
1.46562
1.51268
1.57825
1.65875
1.75539
1.87164
2.01082
2.17261
2.34961
2.52518
2.67512
2.77391
2.8003
2.72517
2.54084
2.31111
2.03831
1.75496
1.48906
1.25813
1.06837
0.920604
0.857917
1.5349
1.553
1.62355
1.72824
1.86016
2.01793
2.20124
2.40656
2.62361
2.83319
3.00817
3.11825
3.14493
3.03634
2.8112
2.53543
2.20599
1.86436
1.54721
1.27883
1.06723
0.907092
0.793108
0.751623
1.68092
1.70077
1.81133
1.97611
2.18062
2.41683
2.67557
2.9414
3.19051
3.39248
3.51459
3.51123
3.36578
3.09669
2.76384
2.37021
1.96578
1.5951
1.28638
1.04859
0.873234
0.748531
0.668498
0.644144
1.91538
1.93131
2.10106
2.34988
2.64682
2.97026
3.29567
3.5917
3.8208
3.94919
3.89432
3.69964
3.38029
2.96905
2.49911
2.02845
1.60771
1.26648
1.01006
0.825513
0.695834
0.608024
0.554148
0.540256
2.2841
2.2715
2.52057
2.87651
3.27565
3.67368
4.02567
4.28582
4.40154
4.28657
4.02737
3.63619
3.13088
2.57623
2.04122
1.58023
1.21956
0.956784
0.771908
0.642754
0.552911
0.491404
0.455796
0.449246
2.83648
2.74046
3.08955
3.56529
4.05088
4.47233
4.76643
4.84573
4.67592
4.34145
3.84714
3.23782
2.59892
2.00949
1.52349
1.15827
0.89981
0.720031
0.592915
0.50153
0.436087
0.392128
0.36907
0.367105
1.90324
2.38677
3.93151
5.34151
6.1158
26.6184
0.868177
1.3743
2.18878
3.01027
3.86423
5.42236
0.23834
1.15961
1.76793
2.40588
3.12059
3.82588
0.263921
1.09196
1.60843
2.17197
2.82045
3.51305
0.280675
1.07001
1.52978
2.0669
2.72131
3.49763
1.2676
1.06469
1.48483
2.01899
2.71293
3.60411
1.39636
1.06511
1.45527
1.99782
2.7473
3.76531
1.50149
1.06628
1.4319
1.98734
2.79999
3.95203
1.58111
1.0656
1.40925
1.97774
2.85662
4.15098
1.63285
1.06173
1.38378
1.96237
2.90728
4.35476
1.65501
1.05333
1.35313
1.93653
2.94455
4.55257
1.65049
1.03961
1.31582
1.89691
2.96342
4.74622
1.61698
1.02131
1.27108
1.84137
2.95988
4.93288
1.56364
1.00001
1.21873
1.76878
2.93059
5.11255
1.49368
0.974556
1.15964
1.67943
2.8718
5.28366
1.4066
0.941438
1.09469
1.57527
2.78189
5.44222
1.30447
0.895531
1.02453
1.45932
2.65986
5.5787
1.19177
0.828771
0.950439
1.33594
2.50415
5.67624
0.275856
0.723645
0.877401
1.21153
2.31426
5.70876
0.265701
0.654411
0.817376
1.09271
2.09289
5.64653
0.249539
0.625438
0.786864
0.996605
1.85255
5.47223
0.227461
0.660239
0.815275
0.95783
1.62741
5.19889
0.849586
0.898033
1.0148
1.07407
1.5104
4.8894
1.98761
2.19915
2.28705
2.03198
2.10633
4.71573
3.51817
3.31966
3.79918
4.38343
4.89687
5.24033
5.29003
5.07603
4.64934
4.02639
3.30393
2.58462
1.95372
1.45774
1.09909
0.85028
0.676534
0.55092
0.457522
0.388612
0.339935
0.309143
0.295153
0.295857
3.6592
3.93598
4.59729
5.24003
5.67164
5.72697
5.47714
4.95187
4.19379
3.35607
2.56327
1.90238
1.40553
1.05652
0.815547
0.644412
0.517574
0.421267
0.348894
0.296845
0.261932
0.241729
0.234492
0.236661
3.86937
4.57241
5.39515
5.99849
6.13493
5.87962
5.27683
4.38292
3.4302
2.56836
1.88191
1.38378
1.03884
0.798481
0.624201
0.492907
0.392572
0.316848
0.261859
0.224169
0.200479
0.188197
0.185408
0.188424
4.16075
5.19806
6.09569
6.46289
6.27058
5.65788
4.63777
3.56769
2.63219
1.91301
1.40271
1.04964
0.799857
0.61606
0.477125
0.371564
0.292433
0.234808
0.194777
0.168667
0.153358
0.146479
0.146284
0.14965
4.49897
5.77489
6.60902
6.60439
6.0954
5.01076
3.81123
2.78347
2.01156
1.4695
1.09207
0.821697
0.621772
0.471631
0.359033
0.275654
0.215241
0.172883
0.144631
0.127056
0.11753
0.114116
0.115073
0.118688
4.86079
6.26877
6.82769
6.52715
5.53234
4.20019
3.05133
2.19458
1.59375
1.17249
0.868922
0.645065
0.47884
0.356125
0.266666
0.202546
0.157624
0.127179
0.10758
0.0959352
0.0901767
0.0888063
0.090311
0.0938466
5.23241
6.6583
6.85197
6.17285
4.78
3.47361
2.48645
1.79157
1.30241
0.949821
0.691517
0.502085
0.364477
0.265918
0.196401
0.148163
0.11537
0.093757
0.0802382
0.072551
0.0691421
0.0688849
0.0705894
0.0738092
5.60799
6.91324
6.71637
5.6018
4.09968
2.92377
2.089
1.50032
1.07709
0.769351
0.546329
0.38682
0.274655
0.197054
0.144095
0.108388
0.0846796
0.0693565
0.059969
0.0548301
0.0528108
0.0530444
0.0547654
0.0575352
5.98653
7.01225
6.46948
4.98759
3.56367
2.52755
1.79491
1.2701
0.891172
0.619405
0.427754
0.295344
0.205577
0.14557
0.105796
0.0795751
0.0624354
0.0514722
0.0448215
0.0412602
0.0399879
0.0403622
0.041931
0.0442625
6.36889
7.02672
6.14481
4.48091
3.1678
2.22909
1.55848
1.07677
0.73393
0.494883
0.332281
0.224175
0.153492
0.107673
0.0780088
0.0587544
0.0462649
0.038281
0.0334135
0.0307923
0.029859
0.030178
0.0314547
0.0333701
6.74847
6.99652
5.78633
4.10835
2.87103
1.98894
1.35766
0.910319
0.600747
0.392722
0.256779
0.169803
0.114788
0.0800279
0.0579086
0.0436792
0.0344526
0.028499
0.0247883
0.0227017
0.0218522
0.0219789
0.0228816
0.0243969
7.10088
6.96961
5.46523
3.81795
2.63136
1.78283
1.18142
0.766087
0.48894
0.310204
0.198057
0.128842
0.0862918
0.0599352
0.0433533
0.032721
0.0257874
0.0212331
0.0182852
0.0164915
0.0155832
0.0154104
0.0158886
0.0169828
7.41509
6.96904
5.20558
3.59244
2.42935
1.60044
1.02544
0.641872
0.396306
0.244553
0.152996
0.0982732
0.0654012
0.0453278
0.0327784
0.0247234
0.0194203
0.015857
0.0134406
0.0118238
0.0108037
0.010275
0.0102442
0.0108181
7.70576
6.97529
5.02329
3.41484
2.25217
1.43597
0.887316
0.535887
0.320555
0.192981
0.118743
0.0755669
0.0500891
0.0346758
0.0250631
0.0188706
0.0147496
0.0119182
0.00991144
0.00844691
0.00734803
0.0064979
0.00581444
0.00550341
7.99758
7.0156
4.90692
3.26832
2.09123
1.28627
0.765576
0.446399
0.259317
0.152839
0.0928348
0.058707
0.0388282
0.0268681
0.0194086
0.0145814
0.0113391
0.00907398
0.00741909
0.00614048
0.00507816
0.00411373
0.00312236
0.00169754
8.31519
7.09529
4.8473
3.14208
1.94191
1.14983
0.659059
0.371594
0.210256
0.121764
0.0732533
0.0461417
0.0304906
0.0211005
0.015237
0.0114281
0.00885499
0.00704362
0.00570702
0.00466028
0.00377347
0.00295167
0.00212849
0.00110793
8.68366
7.2361
4.82385
3.02647
1.80118
1.02563
0.566502
0.309558
0.171176
0.0977433
0.0584037
0.0367063
0.0242523
0.0167881
0.0121202
0.00908012
0.0070206
0.00556769
0.00449525
0.00365764
0.00295191
0.00230255
0.00166049
0.000929963
9.13193
7.45046
4.81902
2.91453
1.66711
0.912763
0.486548
0.258415
0.140138
0.0791405
0.0470679
0.0295463
0.0195217
0.0135124
0.00974856
0.00729293
0.00562698
0.00445083
0.00358284
0.00290582
0.00233727
0.00181978
0.00132443
0.000799442
9.70099
7.74107
4.82076
2.80118
1.53829
0.810351
0.417783
0.216414
0.115495
0.0646625
0.0383357
0.0240467
0.0158823
0.0109836
0.00791109
0.00590454
0.00454302
0.00358256
0.00287515
0.00232539
0.00186687
0.00145611
0.00107619
0.000698123
10.4541
8.1074
4.82003
2.68137
1.41339
0.717425
0.358869
0.181956
0.0958653
0.0533114
0.0315383
0.0197688
0.0130436
0.0090032
0.00646672
0.00481051
0.00368834
0.00289906
0.00232054
0.00187433
0.00150656
0.00118371
0.000894682
0.000620795
11.4869
8.53741
4.79281
2.54866
1.29091
0.633246
0.308387
0.153549
0.0800909
0.044333
0.0261892
0.0164007
0.0108015
0.00743344
0.00531887
0.00394029
0.00300937
0.00235813
0.00188451
0.0015232
0.00122992
0.000978064
0.000759508
0.000561257
12.9437
8.93443
4.7125
2.39655
1.17005
0.556679
0.264872
0.129978
0.0673167
0.0371631
0.0219349
0.0137194
0.00901172
0.00617739
0.00439962
0.0032442
0.00246814
0.00192945
0.00154182
0.00125021
0.00101771
0.00082267
0.000658472
0.000515469
15.0601
9.21196
4.54638
2.22002
1.04991
0.486521
0.227162
0.110313
0.0569001
0.0313816
0.0185177
0.0115641
0.0075705
0.00516525
0.00365981
0.00268594
0.00203654
0.00159025
0.00127329
0.00103876
0.000855503
0.00070548
0.000582922
0.000480343
18.2697
9.29575
4.25338
2.01565
0.930128
0.422239
0.19449
0.0938805
0.0483725
0.0266927
0.0157547
0.00982018
0.00640361
0.00434661
0.00306336
0.00223831
0.00169304
0.00132275
0.00106377
0.000875724
0.000732012
0.000617362
0.000526518
0.000453459
)
;

boundaryField
{
    rotor
    {
        type            epsilonWallFunction;
        value           nonuniform List<scalar> 
144
(
2.91176
8.8435
11.529
12.4799
10.8326
55.6691
2.91176
1.10536
1.60888
2.24654
2.8578
3.41204
3.89109
4.28534
4.59099
4.80788
4.938
4.98433
4.95094
4.84182
4.65931
4.4002
4.06407
3.65292
3.17157
2.62934
2.04265
1.4388
1.00924
2.36726
2.36726
6.6987
9.14909
10.7583
10.9861
45.9638
3.13601
2.36451
2.38378
2.2251
2.53798
6.17409
3.13601
1.05725
0.273574
1.34977
1.73502
2.00351
2.22436
2.41435
2.57666
2.71196
2.8213
2.90144
2.93906
2.9324
2.88132
2.78609
2.64615
2.46038
2.22671
1.94204
1.60106
1.19589
0.899326
2.5892
2.5892
6.33054
8.70784
9.23365
8.79547
26.3199
2.05094
2.45706
2.95905
3.03051
2.8169
2.61654
2.05094
0.888282
0.23741
0.259769
0.274853
1.21479
1.37862
1.52107
1.63952
1.73274
1.80073
1.84479
1.86238
1.85061
1.80582
1.72825
1.61905
1.48068
1.32035
0.280973
0.263386
0.240536
0.887831
1.97643
1.97643
2.62758
3.99938
5.00023
5.50126
6.04015
1.90324
2.38677
3.93151
5.34151
6.1158
26.6184
1.90324
0.868177
0.23834
0.263921
0.280675
1.2676
1.39636
1.50149
1.58111
1.63285
1.65501
1.65049
1.61698
1.56364
1.49368
1.4066
1.30447
1.19177
0.275856
0.265701
0.249539
0.227461
0.849586
1.98761
1.98761
2.19915
2.28705
2.03198
2.10633
4.71573
)
;
    }
    freestream
    {
        type            inletOutlet;
        inletValue      uniform 0.000375;
        value           nonuniform List<scalar> 
96
(
0.000375
0.000375
0.000375
0.000375
0.000375
0.000375
0.000375
0.000375
0.000375
0.000375
0.000375
0.000375
0.000375
0.000375
0.000375
0.000375
0.000375
0.000375
0.000375
0.000375
0.000375
0.000375
0.000375
0.000375
0.000375
0.000375
0.000375
0.000375
0.000375
0.000375
0.000375
0.000375
0.000375
0.000375
0.000375
0.000375
0.000375
0.00252751
0.00410319
0.00597857
0.00821247
0.0108703
0.0140382
0.0178188
0.0223533
0.0278626
0.0347207
0.0436023
0.0556884
0.0732964
0.100657
0.144714
0.22146
0.383838
0.762274
1.43029
2.09754
2.39247
2.38339
2.15516
2.06076
2.13104
2.14614
1.84099
1.32877
1.01092
0.857917
0.751623
0.644144
0.540256
0.449246
0.367105
0.295857
0.236661
0.188424
0.14965
0.118688
0.0938466
0.0738092
0.0575352
0.0442625
0.0333701
0.0243969
0.0169828
0.0108181
0.00550341
0.000375
0.000375
0.000375
0.000375
0.000375
0.000375
0.000375
0.000375
0.000375
0.000375
)
;
    }
    frontAndBack
    {
        type            empty;
    }
}


// ************************************************************************* //
