/*--------------------------------*- C++ -*----------------------------------*\
  =========                 |
  \\      /  F ield         | OpenFOAM: The Open Source CFD Toolbox
   \\    /   O peration     | Website:  https://openfoam.org
    \\  /    A nd           | Version:  11
     \\/     M anipulation  |
\*---------------------------------------------------------------------------*/
FoamFile
{
    format      ascii;
    class       surfaceScalarField;
    location    "0.86";
    object      meshPhi;
}
// * * * * * * * * * * * * * * * * * * * * * * * * * * * * * * * * * * * * * //

dimensions      [0 3 -1 0 0 0 0];

internalField   nonuniform List<scalar> 
5640
(
1.36968e-16
9.81747e-07
2.42089e-16
1.37445e-06
3.77048e-16
1.76715e-06
-1.33924e-15
2.15984e-06
-3.68152e-15
2.55254e-06
2.94524e-06
5.95127e-15
1.84985e-18
9.81747e-07
-3.88779e-16
1.37445e-06
-2.60419e-15
1.76715e-06
1.94361e-15
2.15984e-06
8.06629e-15
2.55254e-06
2.94524e-06
-9.02988e-15
-1.16457e-16
9.81747e-07
1.86388e-16
1.37445e-06
-1.56235e-15
1.76715e-06
-4.21253e-15
2.15984e-06
-7.49843e-15
2.55254e-06
2.94524e-06
7.72422e-16
8.69742e-17
9.81747e-07
-1.01919e-16
1.37445e-06
2.69319e-15
1.76715e-06
7.44289e-15
2.15984e-06
3.25981e-15
2.55254e-06
2.94524e-06
-2.79791e-15
-4.83429e-17
9.81747e-07
3.94937e-17
1.37445e-06
1.94369e-16
1.76715e-06
-1.80615e-15
2.15984e-06
-4.20873e-15
2.55254e-06
2.94524e-06
5.01329e-15
-1.80098e-16
9.81747e-07
4.34784e-18
1.37445e-06
-1.84771e-15
1.76715e-06
-3.8862e-15
2.15984e-06
3.15708e-15
2.55254e-06
2.94524e-06
4.98158e-16
2.53956e-16
9.81747e-07
2.55466e-16
1.37445e-06
2.06598e-15
1.76715e-06
4.50417e-15
2.15984e-06
-2.30998e-15
2.55254e-06
2.94524e-06
5.41107e-16
2.16715e-17
9.81747e-07
-3.21622e-16
1.37445e-06
-1.14891e-15
1.76715e-06
-5.28553e-15
2.15984e-06
-3.7681e-16
2.55254e-06
2.94524e-06
-5.63988e-15
-1.43401e-16
9.81747e-07
1.66466e-16
1.37445e-06
4.1911e-15
1.76715e-06
6.34949e-15
2.15984e-06
-8.05906e-16
2.55254e-06
2.94524e-06
8.39203e-16
-6.8795e-17
9.81747e-07
-9.2054e-17
1.37445e-06
-2.76939e-15
1.76715e-06
-3.68702e-16
2.15984e-06
-1.45083e-15
2.55254e-06
2.94524e-06
-1.76609e-16
1.66363e-16
9.81747e-07
-8.86722e-17
1.37445e-06
5.69664e-16
1.76715e-06
-2.10346e-15
2.15984e-06
9.65986e-15
2.55254e-06
2.94524e-06
5.29036e-15
-1.7777e-16
9.81747e-07
-2.0489e-17
1.37445e-06
-3.45405e-16
1.76715e-06
-4.1726e-15
2.15984e-06
-2.62251e-15
2.55254e-06
2.94524e-06
5.36954e-15
1.77793e-16
9.81747e-07
2.05456e-17
1.37445e-06
3.45512e-16
1.76715e-06
4.17264e-15
2.15984e-06
2.62242e-15
2.55254e-06
2.94524e-06
-5.36947e-15
-1.66312e-16
9.81747e-07
8.86996e-17
1.37445e-06
-5.69605e-16
1.76715e-06
2.10356e-15
2.15984e-06
-9.65995e-15
2.55254e-06
2.94524e-06
-5.29024e-15
6.88148e-17
9.81747e-07
9.20932e-17
1.37445e-06
2.76943e-15
1.76715e-06
3.68808e-16
2.15984e-06
1.45108e-15
2.55254e-06
2.94524e-06
1.76668e-16
1.43419e-16
9.81747e-07
-1.66335e-16
1.37445e-06
-4.1911e-15
1.76715e-06
-6.34946e-15
2.15984e-06
8.05695e-16
2.55254e-06
2.94524e-06
-8.39316e-16
-2.16559e-17
9.81747e-07
3.21701e-16
1.37445e-06
1.14893e-15
1.76715e-06
5.28566e-15
2.15984e-06
3.76865e-16
2.55254e-06
2.94524e-06
5.63993e-15
-2.53961e-16
9.81747e-07
-2.55445e-16
1.37445e-06
-2.06594e-15
1.76715e-06
-4.5041e-15
2.15984e-06
2.31004e-15
2.55254e-06
2.94524e-06
-5.40747e-16
1.80115e-16
9.81747e-07
-4.32993e-18
1.37445e-06
1.84786e-15
1.76715e-06
3.88616e-15
2.15984e-06
-3.15717e-15
2.55254e-06
2.94524e-06
-4.98153e-16
4.83854e-17
9.81747e-07
-3.9538e-17
1.37445e-06
-1.94291e-16
1.76715e-06
1.8061e-15
2.15984e-06
4.20846e-15
2.55254e-06
2.94524e-06
-5.0135e-15
-8.69597e-17
9.81747e-07
1.01886e-16
1.37445e-06
-2.6931e-15
1.76715e-06
-7.44271e-15
2.15984e-06
-3.25977e-15
2.55254e-06
2.94524e-06
2.79804e-15
1.16481e-16
9.81747e-07
-1.86369e-16
1.37445e-06
1.5624e-15
1.76715e-06
4.21261e-15
2.15984e-06
7.49854e-15
2.55254e-06
2.94524e-06
-7.72213e-16
-1.83866e-18
9.81747e-07
3.8879e-16
1.37445e-06
2.60415e-15
1.76715e-06
-1.94364e-15
2.15984e-06
-8.06622e-15
2.55254e-06
2.94524e-06
9.0299e-15
-1.36948e-16
-2.4209e-16
-3.76945e-16
1.33941e-15
3.68162e-15
-5.95128e-15
-1.1336e-14
4.53785e-06
-4.53785e-06
-4.8108e-16
5.23599e-06
-5.23599e-06
-5.35695e-15
5.93412e-06
-5.93412e-06
-1.13034e-14
6.63225e-06
-6.63225e-06
4.86929e-15
7.33038e-06
-7.33038e-06
-1.1093e-15
8.02851e-06
-8.02851e-06
-8.15879e-15
8.72664e-06
-8.72664e-06
1.30447e-14
9.42478e-06
-9.42478e-06
5.94954e-15
1.01229e-05
-1.01229e-05
-1.99605e-15
1.0821e-05
-1.0821e-05
2.43878e-14
1.15192e-05
-1.15192e-05
1.61897e-14
1.22173e-05
-1.22173e-05
-3.27844e-14
1.29154e-05
-1.29154e-05
-3.05048e-15
1.36136e-05
-1.36136e-05
-1.44416e-14
1.43117e-05
-1.43117e-05
-2.69023e-14
1.50098e-05
-1.50098e-05
7.73949e-15
1.5708e-05
-1.5708e-05
-4.4386e-15
1.64061e-05
-1.64061e-05
-1.79983e-14
1.71042e-05
-1.71042e-05
2.18211e-14
1.78024e-05
-1.78024e-05
8.21749e-15
1.85005e-05
-1.85005e-05
-6.08003e-15
1.91986e-05
-1.91986e-05
3.89202e-14
1.98967e-05
-1.98967e-05
2.05949e-05
-2.05949e-05
9.39876e-15
4.53785e-06
5.20272e-16
5.23599e-06
7.52863e-15
5.93412e-06
-4.41159e-15
6.63225e-06
3.78341e-15
7.33038e-06
1.3385e-14
8.02851e-06
-2.10966e-15
8.72664e-06
8.52816e-15
9.42478e-06
-1.00267e-14
1.01229e-05
1.86553e-15
1.0821e-05
-2.0202e-14
1.15192e-05
-7.01258e-15
1.22173e-05
7.5111e-15
1.29154e-05
2.36083e-14
1.36136e-05
-2.0409e-15
1.43117e-05
1.48323e-14
1.50098e-05
-1.38762e-14
1.5708e-05
2.39285e-15
1.64061e-05
2.04102e-14
1.71042e-05
-7.01749e-15
1.78024e-05
1.20704e-14
1.85005e-05
-2.59399e-14
1.91986e-05
1.84794e-15
1.98967e-05
2.05949e-05
-8.67605e-15
4.53785e-06
1.22927e-14
5.23599e-06
1.88327e-15
5.93412e-06
8.90234e-15
6.63225e-06
-5.10821e-15
7.33038e-06
-2.199e-14
8.02851e-06
1.22648e-14
8.72664e-06
-5.37467e-15
9.42478e-06
4.45648e-15
1.01229e-05
-1.43044e-14
1.0821e-05
-7.32568e-15
1.15192e-05
7.04189e-15
1.22173e-05
2.39958e-14
1.29154e-05
-7.55396e-15
1.36136e-05
9.80076e-15
1.43117e-05
-1.62361e-14
1.50098e-05
4.02947e-14
1.5708e-05
1.44485e-14
1.64061e-05
-1.37021e-14
1.71042e-05
-7.89741e-15
1.78024e-05
-3.92485e-14
1.85005e-05
4.27534e-14
1.91986e-05
-8.84851e-15
1.98967e-05
2.05949e-05
5.98614e-15
4.53785e-06
2.19196e-16
5.23599e-06
-6.43527e-15
5.93412e-06
6.06419e-15
6.63225e-06
-2.09305e-15
7.33038e-06
1.61773e-14
8.02851e-06
-1.88301e-14
8.72664e-06
-2.35101e-15
9.42478e-06
9.17275e-15
1.01229e-05
-4.71123e-15
1.0821e-05
2.16279e-14
1.15192e-05
-2.96448e-14
1.22173e-05
-9.28851e-15
1.29154e-05
-1.89065e-14
1.36136e-05
4.4676e-15
1.43117e-05
3.01567e-14
1.50098e-05
-2.62143e-14
1.5708e-05
4.38994e-16
1.64061e-05
-2.11708e-14
1.71042e-05
1.87125e-14
1.78024e-05
-3.92243e-15
1.85005e-05
-2.91553e-14
1.91986e-05
1.52313e-14
1.98967e-05
2.05949e-05
6.71518e-15
4.53785e-06
-7.30679e-15
5.23599e-06
1.11007e-14
5.93412e-06
-4.24097e-15
6.63225e-06
1.51021e-14
7.33038e-06
-5.20825e-15
8.02851e-06
1.70138e-14
8.72664e-06
-3.94197e-15
9.42478e-06
-2.93903e-16
1.01229e-05
6.61121e-15
1.0821e-05
1.37057e-14
1.15192e-05
1.01866e-14
1.22173e-05
1.82193e-14
1.29154e-05
1.43707e-14
1.36136e-05
2.33407e-14
1.43117e-05
-2.53411e-14
1.50098e-05
2.90758e-14
1.5708e-05
-7.82719e-15
1.64061e-05
3.54168e-14
1.71042e-05
-4.5124e-15
1.78024e-05
4.23716e-14
1.85005e-05
-5.83815e-16
1.91986e-05
-8.73435e-15
1.98967e-05
2.05949e-05
-4.63034e-15
4.53785e-06
5.7973e-15
5.23599e-06
-1.61505e-14
5.93412e-06
-5.97416e-15
6.63225e-06
-8.55502e-15
7.33038e-06
4.22454e-15
8.02851e-06
-8.18727e-15
8.72664e-06
6.9993e-15
9.42478e-06
-2.42292e-14
1.01229e-05
-7.76923e-15
1.0821e-05
-2.27632e-14
1.15192e-05
8.35204e-15
1.22173e-05
-7.40256e-15
1.29154e-05
2.82667e-14
1.36136e-05
-4.57108e-14
1.43117e-05
-8.21985e-15
1.50098e-05
-2.82264e-14
1.5708e-05
-2.33637e-15
1.64061e-05
-6.94152e-15
1.71042e-05
2.21539e-14
1.78024e-05
-3.41076e-14
1.85005e-05
-3.74172e-15
1.91986e-05
-3.23456e-14
1.98967e-05
2.05949e-05
-8.92495e-15
4.53785e-06
-2.28864e-15
5.23599e-06
-2.22373e-15
5.93412e-06
6.61597e-15
6.63225e-06
-3.38758e-15
7.33038e-06
-3.90637e-15
8.02851e-06
-6.41858e-15
8.72664e-06
-7.15811e-15
9.42478e-06
6.80997e-15
1.01229e-05
6.98409e-15
1.0821e-05
-9.06567e-15
1.15192e-05
6.76104e-15
1.22173e-05
-2.88872e-14
1.29154e-05
-1.22345e-14
1.36136e-05
4.8045e-15
1.43117e-05
2.50276e-14
1.50098e-05
3.86263e-15
1.5708e-05
3.61101e-15
1.64061e-05
-2.04808e-14
1.71042e-05
-2.17583e-14
1.78024e-05
3.46876e-15
1.85005e-05
2.90425e-14
1.91986e-05
-1.66176e-15
1.98967e-05
2.05949e-05
6.21583e-15
4.53785e-06
-3.87915e-15
5.23599e-06
1.5422e-14
5.93412e-06
-7.0646e-15
6.63225e-06
-2.20967e-15
7.33038e-06
1.42988e-15
8.02851e-06
-5.493e-15
8.72664e-06
1.32259e-14
9.42478e-06
6.04641e-15
1.01229e-05
-1.74489e-14
1.0821e-05
2.08873e-14
1.15192e-05
-2.14435e-14
1.22173e-05
1.91349e-14
1.29154e-05
-7.31575e-15
1.36136e-05
3.84873e-14
1.43117e-05
-1.29184e-14
1.50098e-05
-1.88144e-15
1.5708e-05
5.71951e-15
1.64061e-05
-7.58574e-15
1.71042e-05
2.76595e-14
1.78024e-05
1.41019e-14
1.85005e-05
-5.31405e-14
1.91986e-05
3.90869e-14
1.98967e-05
2.05949e-05
-1.49877e-15
4.53785e-06
1.08971e-14
5.23599e-06
-6.59953e-15
5.93412e-06
7.2655e-15
6.63225e-06
6.17466e-15
7.33038e-06
2.48942e-15
8.02851e-06
-9.63945e-16
8.72664e-06
-4.36548e-15
9.42478e-06
-8.89999e-15
1.01229e-05
1.38622e-14
1.0821e-05
1.06909e-14
1.15192e-05
6.25159e-15
1.22173e-05
-1.27101e-16
1.29154e-05
-3.4376e-15
1.36136e-05
-1.10433e-14
1.43117e-05
-1.77598e-14
1.50098e-05
1.76815e-14
1.5708e-05
9.95769e-15
1.64061e-05
3.33141e-15
1.71042e-05
-3.29658e-14
1.78024e-05
-1.042e-14
1.85005e-05
3.00656e-14
1.91986e-05
-5.99947e-14
1.98967e-05
2.05949e-05
5.17012e-15
4.53785e-06
-7.45564e-15
5.23599e-06
-7.56659e-16
5.93412e-06
6.84003e-15
6.63225e-06
-9.97424e-15
7.33038e-06
-1.66359e-15
8.02851e-06
9.21919e-15
8.72664e-06
-1.3459e-14
9.42478e-06
2.3221e-14
1.01229e-05
1.04724e-14
1.0821e-05
-1.72707e-14
1.15192e-05
-3.02664e-15
1.22173e-05
1.13997e-14
1.29154e-05
-1.98144e-14
1.36136e-05
-4.68013e-15
1.43117e-05
5.03067e-14
1.50098e-05
-2.40488e-14
1.5708e-05
-6.65435e-15
1.64061e-05
1.42622e-14
1.71042e-05
1.65066e-15
1.78024e-05
-6.80871e-15
1.85005e-05
1.44406e-14
1.91986e-05
5.07573e-14
1.98967e-05
2.05949e-05
-6.1972e-15
4.53785e-06
2.85715e-17
5.23599e-06
1.15118e-14
5.93412e-06
-2.06258e-14
6.63225e-06
5.36688e-15
7.33038e-06
1.22149e-15
8.02851e-06
-4.61483e-17
8.72664e-06
1.23937e-14
9.42478e-06
-1.32262e-14
1.01229e-05
-1.8895e-14
1.0821e-05
-4.96407e-15
1.15192e-05
-7.15121e-15
1.22173e-05
-1.48861e-14
1.29154e-05
3.53403e-14
1.36136e-05
-6.50855e-19
1.43117e-05
-4.31385e-14
1.50098e-05
1.35605e-14
1.5708e-05
-2.82574e-14
1.64061e-05
2.45471e-15
1.71042e-05
-1.02412e-14
1.78024e-05
2.38056e-14
1.85005e-05
1.38735e-14
1.91986e-05
-4.55576e-14
1.98967e-05
2.05949e-05
-1.90672e-15
4.53785e-06
1.13069e-15
5.23599e-06
-2.16618e-14
5.93412e-06
9.62403e-15
6.63225e-06
1.51372e-14
7.33038e-06
-1.40649e-14
8.02851e-06
8.09282e-15
8.72664e-06
-2.69596e-14
9.42478e-06
-1.96603e-15
1.01229e-05
2.97166e-14
1.0821e-05
-1.17444e-14
1.15192e-05
1.98675e-14
1.22173e-05
-2.74442e-14
1.29154e-05
-2.06164e-14
1.36136e-05
1.60402e-14
1.43117e-05
-4.61329e-15
1.50098e-05
4.69464e-15
1.5708e-05
4.79678e-14
1.64061e-05
-1.37374e-14
1.71042e-05
3.23713e-14
1.78024e-05
-3.5184e-14
1.85005e-05
-2.49036e-14
1.91986e-05
7.19167e-14
1.98967e-05
2.05949e-05
1.90662e-15
4.53785e-06
-1.13071e-15
5.23599e-06
2.16617e-14
5.93412e-06
-9.62446e-15
6.63225e-06
-1.51367e-14
7.33038e-06
1.40658e-14
8.02851e-06
-8.09281e-15
8.72664e-06
2.69603e-14
9.42478e-06
1.96593e-15
1.01229e-05
-2.97175e-14
1.0821e-05
1.17447e-14
1.15192e-05
-1.98659e-14
1.22173e-05
2.74451e-14
1.29154e-05
2.06147e-14
1.36136e-05
-1.60406e-14
1.43117e-05
4.61351e-15
1.50098e-05
-4.69059e-15
1.5708e-05
-4.79643e-14
1.64061e-05
1.37431e-14
1.71042e-05
-3.23712e-14
1.78024e-05
3.51833e-14
1.85005e-05
2.49045e-14
1.91986e-05
-7.19118e-14
1.98967e-05
2.05949e-05
6.19731e-15
4.53785e-06
-2.86109e-17
5.23599e-06
-1.15116e-14
5.93412e-06
2.06256e-14
6.63225e-06
-5.36686e-15
7.33038e-06
-1.22126e-15
8.02851e-06
4.7618e-17
8.72664e-06
-1.23922e-14
9.42478e-06
1.3225e-14
1.01229e-05
1.88945e-14
1.0821e-05
4.96465e-15
1.15192e-05
7.15448e-15
1.22173e-05
1.48849e-14
1.29154e-05
-3.53377e-14
1.36136e-05
1.59814e-19
1.43117e-05
4.31396e-14
1.50098e-05
-1.35635e-14
1.5708e-05
2.82572e-14
1.64061e-05
-2.45085e-15
1.71042e-05
1.0242e-14
1.78024e-05
-2.38058e-14
1.85005e-05
-1.38689e-14
1.91986e-05
4.55675e-14
1.98967e-05
2.05949e-05
-5.17004e-15
4.53785e-06
7.45549e-15
5.23599e-06
7.56543e-16
5.93412e-06
-6.83958e-15
6.63225e-06
9.97438e-15
7.33038e-06
1.66505e-15
8.02851e-06
-9.21892e-15
8.72664e-06
1.34595e-14
9.42478e-06
-2.32216e-14
1.01229e-05
-1.04726e-14
1.0821e-05
1.72711e-14
1.15192e-05
3.02617e-15
1.22173e-05
-1.13992e-14
1.29154e-05
1.98187e-14
1.36136e-05
4.67942e-15
1.43117e-05
-5.03075e-14
1.50098e-05
2.4048e-14
1.5708e-05
6.66019e-15
1.64061e-05
-1.42579e-14
1.71042e-05
-1.65084e-15
1.78024e-05
6.80989e-15
1.85005e-05
-1.44407e-14
1.91986e-05
-5.07567e-14
1.98967e-05
2.05949e-05
1.49865e-15
4.53785e-06
-1.08968e-14
5.23599e-06
6.5988e-15
5.93412e-06
-7.26585e-15
6.63225e-06
-6.17477e-15
7.33038e-06
-2.48831e-15
8.02851e-06
9.6369e-16
8.72664e-06
4.36439e-15
9.42478e-06
8.90182e-15
1.01229e-05
-1.38633e-14
1.0821e-05
-1.0691e-14
1.15192e-05
-6.25085e-15
1.22173e-05
1.29585e-16
1.29154e-05
3.4377e-15
1.36136e-05
1.10448e-14
1.43117e-05
1.77658e-14
1.50098e-05
-1.76795e-14
1.5708e-05
-9.95323e-15
1.64061e-05
-3.3269e-15
1.71042e-05
3.29674e-14
1.78024e-05
1.04205e-14
1.85005e-05
-3.00674e-14
1.91986e-05
5.99964e-14
1.98967e-05
2.05949e-05
-6.21558e-15
4.53785e-06
3.87913e-15
5.23599e-06
-1.54221e-14
5.93412e-06
7.06491e-15
6.63225e-06
2.21125e-15
7.33038e-06
-1.42873e-15
8.02851e-06
5.49294e-15
8.72664e-06
-1.32261e-14
9.42478e-06
-6.04496e-15
1.01229e-05
1.74511e-14
1.0821e-05
-2.08868e-14
1.15192e-05
2.14464e-14
1.22173e-05
-1.91338e-14
1.29154e-05
7.31669e-15
1.36136e-05
-3.84866e-14
1.43117e-05
1.29228e-14
1.50098e-05
1.88039e-15
1.5708e-05
-5.71494e-15
1.64061e-05
7.58284e-15
1.71042e-05
-2.76578e-14
1.78024e-05
-1.40971e-14
1.85005e-05
5.3142e-14
1.91986e-05
-3.90866e-14
1.98967e-05
2.05949e-05
8.92538e-15
4.53785e-06
2.28909e-15
5.23599e-06
2.22383e-15
5.93412e-06
-6.61568e-15
6.63225e-06
3.38861e-15
7.33038e-06
3.90706e-15
8.02851e-06
6.4189e-15
8.72664e-06
7.1596e-15
9.42478e-06
-6.8089e-15
1.01229e-05
-6.9826e-15
1.0821e-05
9.06469e-15
1.15192e-05
-6.75924e-15
1.22173e-05
2.88873e-14
1.29154e-05
1.22344e-14
1.36136e-05
-4.80264e-15
1.43117e-05
-2.50233e-14
1.50098e-05
-3.86076e-15
1.5708e-05
-3.60775e-15
1.64061e-05
2.04817e-14
1.71042e-05
2.17615e-14
1.78024e-05
-3.46996e-15
1.85005e-05
-2.90382e-14
1.91986e-05
1.66163e-15
1.98967e-05
2.05949e-05
4.63051e-15
4.53785e-06
-5.79747e-15
5.23599e-06
1.61504e-14
5.93412e-06
5.97505e-15
6.63225e-06
8.55531e-15
7.33038e-06
-4.22478e-15
8.02851e-06
8.18857e-15
8.72664e-06
-6.99934e-15
9.42478e-06
2.42302e-14
1.01229e-05
7.76891e-15
1.0821e-05
2.27645e-14
1.15192e-05
-8.34978e-15
1.22173e-05
7.40431e-15
1.29154e-05
-2.82664e-14
1.36136e-05
4.57132e-14
1.43117e-05
8.22297e-15
1.50098e-05
2.82264e-14
1.5708e-05
2.33801e-15
1.64061e-05
6.94294e-15
1.71042e-05
-2.21483e-14
1.78024e-05
3.41122e-14
1.85005e-05
3.74139e-15
1.91986e-05
3.23409e-14
1.98967e-05
2.05949e-05
-6.715e-15
4.53785e-06
7.30634e-15
5.23599e-06
-1.11011e-14
5.93412e-06
4.24192e-15
6.63225e-06
-1.51018e-14
7.33038e-06
5.20867e-15
8.02851e-06
-1.70121e-14
8.72664e-06
3.94082e-15
9.42478e-06
2.94655e-16
1.01229e-05
-6.61016e-15
1.0821e-05
-1.3705e-14
1.15192e-05
-1.0185e-14
1.22173e-05
-1.82167e-14
1.29154e-05
-1.43688e-14
1.36136e-05
-2.33385e-14
1.43117e-05
2.5343e-14
1.50098e-05
-2.90732e-14
1.5708e-05
7.82621e-15
1.64061e-05
-3.54163e-14
1.71042e-05
4.51354e-15
1.78024e-05
-4.23666e-14
1.85005e-05
5.89014e-16
1.91986e-05
8.73405e-15
1.98967e-05
2.05949e-05
-5.98584e-15
4.53785e-06
-2.18951e-16
5.23599e-06
6.43519e-15
5.93412e-06
-6.06357e-15
6.63225e-06
2.09286e-15
7.33038e-06
-1.61771e-14
8.02851e-06
1.88316e-14
8.72664e-06
2.35096e-15
9.42478e-06
-9.17173e-15
1.01229e-05
4.71134e-15
1.0821e-05
-2.1627e-14
1.15192e-05
2.96457e-14
1.22173e-05
9.29055e-15
1.29154e-05
1.89069e-14
1.36136e-05
-4.46773e-15
1.43117e-05
-3.01534e-14
1.50098e-05
2.6216e-14
1.5708e-05
-4.37879e-16
1.64061e-05
2.11726e-14
1.71042e-05
-1.87141e-14
1.78024e-05
3.92243e-15
1.85005e-05
2.91565e-14
1.91986e-05
-1.52313e-14
1.98967e-05
2.05949e-05
8.67614e-15
4.53785e-06
-1.22924e-14
5.23599e-06
-1.88334e-15
5.93412e-06
-8.90202e-15
6.63225e-06
5.10863e-15
7.33038e-06
2.19906e-14
8.02851e-06
-1.22644e-14
8.72664e-06
5.37439e-15
9.42478e-06
-4.45635e-15
1.01229e-05
1.43067e-14
1.0821e-05
7.32683e-15
1.15192e-05
-7.04111e-15
1.22173e-05
-2.39954e-14
1.29154e-05
7.55467e-15
1.36136e-05
-9.8002e-15
1.43117e-05
1.6238e-14
1.50098e-05
-4.02926e-14
1.5708e-05
-1.44464e-14
1.64061e-05
1.37042e-14
1.71042e-05
7.89542e-15
1.78024e-05
3.92502e-14
1.85005e-05
-4.27531e-14
1.91986e-05
8.85041e-15
1.98967e-05
2.05949e-05
-9.39881e-15
4.53785e-06
-5.20138e-16
5.23599e-06
-7.52847e-15
5.93412e-06
4.41234e-15
6.63225e-06
-3.78354e-15
7.33038e-06
-1.33846e-14
8.02851e-06
2.10984e-15
8.72664e-06
-8.52861e-15
9.42478e-06
1.00277e-14
1.01229e-05
-1.86602e-15
1.0821e-05
2.02029e-14
1.15192e-05
7.01345e-15
1.22173e-05
-7.50986e-15
1.29154e-05
-2.36072e-14
1.36136e-05
2.04242e-15
1.43117e-05
-1.48345e-14
1.50098e-05
1.38831e-14
1.5708e-05
-2.38955e-15
1.64061e-05
-2.0411e-14
1.71042e-05
7.01646e-15
1.78024e-05
-1.20637e-14
1.85005e-05
2.59405e-14
1.91986e-05
-1.84451e-15
1.98967e-05
2.05949e-05
1.13361e-14
4.53785e-06
4.81282e-16
5.23599e-06
5.35762e-15
5.93412e-06
1.13042e-14
6.63225e-06
-4.86928e-15
7.33038e-06
1.10945e-15
8.02851e-06
8.15842e-15
8.72664e-06
-1.30445e-14
9.42478e-06
-5.94917e-15
1.01229e-05
1.99661e-15
1.0821e-05
-2.43868e-14
1.15192e-05
-1.61886e-14
1.22173e-05
3.27867e-14
1.29154e-05
3.05311e-15
1.36136e-05
1.44418e-14
1.43117e-05
2.69013e-14
1.50098e-05
-7.73652e-15
1.5708e-05
4.43779e-15
1.64061e-05
1.8003e-14
1.71042e-05
-2.18203e-14
1.78024e-05
-8.20876e-15
1.85005e-05
6.08121e-15
1.91986e-05
-3.89227e-14
1.98967e-05
2.05949e-05
1.36968e-16
9.81747e-07
2.42101e-16
1.37445e-06
3.77048e-16
1.76715e-06
-1.33924e-15
2.15984e-06
-3.68152e-15
2.55254e-06
2.94524e-06
5.95133e-15
1.84985e-18
9.81747e-07
-3.88779e-16
1.37445e-06
-2.60419e-15
1.76715e-06
1.94361e-15
2.15984e-06
8.06629e-15
2.55254e-06
2.94524e-06
-9.02988e-15
-1.16457e-16
9.81747e-07
1.86388e-16
1.37445e-06
-1.56235e-15
1.76715e-06
-4.21253e-15
2.15984e-06
-7.49843e-15
2.55254e-06
2.94524e-06
7.72422e-16
8.69742e-17
9.81747e-07
-1.01919e-16
1.37445e-06
2.69319e-15
1.76715e-06
7.44289e-15
2.15984e-06
3.25981e-15
2.55254e-06
2.94524e-06
-2.79791e-15
-4.83429e-17
9.81747e-07
3.94937e-17
1.37445e-06
1.94369e-16
1.76715e-06
-1.80615e-15
2.15984e-06
-4.20873e-15
2.55254e-06
2.94524e-06
5.01329e-15
-1.80098e-16
9.81747e-07
4.34784e-18
1.37445e-06
-1.84771e-15
1.76715e-06
-3.8862e-15
2.15984e-06
3.15708e-15
2.55254e-06
2.94524e-06
4.98158e-16
2.53956e-16
9.81747e-07
2.55466e-16
1.37445e-06
2.06598e-15
1.76715e-06
4.50417e-15
2.15984e-06
-2.30998e-15
2.55254e-06
2.94524e-06
5.41107e-16
2.16715e-17
9.81747e-07
-3.21622e-16
1.37445e-06
-1.14891e-15
1.76715e-06
-5.28553e-15
2.15984e-06
-3.7681e-16
2.55254e-06
2.94524e-06
-5.63988e-15
-1.43401e-16
9.81747e-07
1.66466e-16
1.37445e-06
4.1911e-15
1.76715e-06
6.34949e-15
2.15984e-06
-8.05906e-16
2.55254e-06
2.94524e-06
8.39203e-16
-6.8795e-17
9.81747e-07
-9.2054e-17
1.37445e-06
-2.76939e-15
1.76715e-06
-3.68702e-16
2.15984e-06
-1.45083e-15
2.55254e-06
2.94524e-06
-1.76609e-16
1.66363e-16
9.81747e-07
-8.86722e-17
1.37445e-06
5.69664e-16
1.76715e-06
-2.10346e-15
2.15984e-06
9.65986e-15
2.55254e-06
2.94524e-06
5.29036e-15
-1.7777e-16
9.81747e-07
-2.0489e-17
1.37445e-06
-3.45405e-16
1.76715e-06
-4.1726e-15
2.15984e-06
-2.62251e-15
2.55254e-06
2.94524e-06
5.36954e-15
1.77793e-16
9.81747e-07
2.05456e-17
1.37445e-06
3.45512e-16
1.76715e-06
4.17264e-15
2.15984e-06
2.62242e-15
2.55254e-06
2.94524e-06
-5.36947e-15
-1.66312e-16
9.81747e-07
8.86996e-17
1.37445e-06
-5.69605e-16
1.76715e-06
2.10356e-15
2.15984e-06
-9.65995e-15
2.55254e-06
2.94524e-06
-5.29024e-15
6.88148e-17
9.81747e-07
9.20932e-17
1.37445e-06
2.76943e-15
1.76715e-06
3.68808e-16
2.15984e-06
1.45108e-15
2.55254e-06
2.94524e-06
1.76668e-16
1.43419e-16
9.81747e-07
-1.66335e-16
1.37445e-06
-4.1911e-15
1.76715e-06
-6.34946e-15
2.15984e-06
8.05695e-16
2.55254e-06
2.94524e-06
-8.39316e-16
-2.16559e-17
9.81747e-07
3.21701e-16
1.37445e-06
1.14893e-15
1.76715e-06
5.28566e-15
2.15984e-06
3.76865e-16
2.55254e-06
2.94524e-06
5.63993e-15
-2.53961e-16
9.81747e-07
-2.55445e-16
1.37445e-06
-2.06594e-15
1.76715e-06
-4.5041e-15
2.15984e-06
2.31004e-15
2.55254e-06
2.94524e-06
-5.40747e-16
1.80115e-16
9.81747e-07
-4.32993e-18
1.37445e-06
1.84786e-15
1.76715e-06
3.88616e-15
2.15984e-06
-3.15717e-15
2.55254e-06
2.94524e-06
-4.98153e-16
4.83854e-17
9.81747e-07
-3.9538e-17
1.37445e-06
-1.94291e-16
1.76715e-06
1.8061e-15
2.15984e-06
4.20846e-15
2.55254e-06
2.94524e-06
-5.0135e-15
-8.69597e-17
9.81747e-07
1.01886e-16
1.37445e-06
-2.6931e-15
1.76715e-06
-7.44271e-15
2.15984e-06
-3.25977e-15
2.55254e-06
2.94524e-06
2.79804e-15
1.16481e-16
9.81747e-07
-1.86369e-16
1.37445e-06
1.5624e-15
1.76715e-06
4.21261e-15
2.15984e-06
7.49854e-15
2.55254e-06
2.94524e-06
-7.72213e-16
-1.83866e-18
9.81747e-07
3.8879e-16
1.37445e-06
2.60415e-15
1.76715e-06
-1.94364e-15
2.15984e-06
-8.06622e-15
2.55254e-06
2.94524e-06
9.0299e-15
-1.36942e-16
-2.42063e-16
-3.76945e-16
1.33941e-15
3.68161e-15
-5.95119e-15
-1.13362e-14
4.53785e-06
-4.8108e-16
5.23599e-06
-5.35695e-15
5.93412e-06
-1.13034e-14
6.63225e-06
4.86879e-15
7.33038e-06
-1.10976e-15
8.02851e-06
-8.15834e-15
8.72664e-06
1.30451e-14
9.42478e-06
5.94954e-15
1.01229e-05
-1.99605e-15
1.0821e-05
2.43878e-14
1.15192e-05
1.61897e-14
1.22173e-05
-3.27844e-14
1.29154e-05
-3.05048e-15
1.36136e-05
-1.44416e-14
1.43117e-05
-2.69023e-14
1.50098e-05
7.7411e-15
1.5708e-05
-4.43903e-15
1.64061e-05
-1.79993e-14
1.71042e-05
2.18214e-14
1.78024e-05
8.21657e-15
1.85005e-05
-6.07972e-15
1.91986e-05
3.89191e-14
1.98967e-05
2.05949e-05
9.39876e-15
4.53785e-06
5.20272e-16
5.23599e-06
7.52863e-15
5.93412e-06
-4.41159e-15
6.63225e-06
3.78341e-15
7.33038e-06
1.3385e-14
8.02851e-06
-2.10966e-15
8.72664e-06
8.52816e-15
9.42478e-06
-1.00267e-14
1.01229e-05
1.86553e-15
1.0821e-05
-2.0202e-14
1.15192e-05
-7.01258e-15
1.22173e-05
7.5111e-15
1.29154e-05
2.36083e-14
1.36136e-05
-2.0409e-15
1.43117e-05
1.48323e-14
1.50098e-05
-1.38762e-14
1.5708e-05
2.39285e-15
1.64061e-05
2.04102e-14
1.71042e-05
-7.01749e-15
1.78024e-05
1.20704e-14
1.85005e-05
-2.59399e-14
1.91986e-05
1.84794e-15
1.98967e-05
2.05949e-05
-8.67605e-15
4.53785e-06
1.22927e-14
5.23599e-06
1.88327e-15
5.93412e-06
8.90234e-15
6.63225e-06
-5.10821e-15
7.33038e-06
-2.199e-14
8.02851e-06
1.22648e-14
8.72664e-06
-5.37467e-15
9.42478e-06
4.45648e-15
1.01229e-05
-1.43044e-14
1.0821e-05
-7.32568e-15
1.15192e-05
7.04189e-15
1.22173e-05
2.39958e-14
1.29154e-05
-7.55396e-15
1.36136e-05
9.80076e-15
1.43117e-05
-1.62361e-14
1.50098e-05
4.02947e-14
1.5708e-05
1.44485e-14
1.64061e-05
-1.37021e-14
1.71042e-05
-7.89741e-15
1.78024e-05
-3.92485e-14
1.85005e-05
4.27534e-14
1.91986e-05
-8.84851e-15
1.98967e-05
2.05949e-05
5.98614e-15
4.53785e-06
2.19196e-16
5.23599e-06
-6.43527e-15
5.93412e-06
6.06419e-15
6.63225e-06
-2.09305e-15
7.33038e-06
1.61773e-14
8.02851e-06
-1.88301e-14
8.72664e-06
-2.35101e-15
9.42478e-06
9.17275e-15
1.01229e-05
-4.71123e-15
1.0821e-05
2.16279e-14
1.15192e-05
-2.96448e-14
1.22173e-05
-9.28851e-15
1.29154e-05
-1.89065e-14
1.36136e-05
4.4676e-15
1.43117e-05
3.01567e-14
1.50098e-05
-2.62143e-14
1.5708e-05
4.38994e-16
1.64061e-05
-2.11708e-14
1.71042e-05
1.87125e-14
1.78024e-05
-3.92243e-15
1.85005e-05
-2.91553e-14
1.91986e-05
1.52313e-14
1.98967e-05
2.05949e-05
6.71518e-15
4.53785e-06
-7.30679e-15
5.23599e-06
1.11007e-14
5.93412e-06
-4.24097e-15
6.63225e-06
1.51021e-14
7.33038e-06
-5.20825e-15
8.02851e-06
1.70138e-14
8.72664e-06
-3.94197e-15
9.42478e-06
-2.93903e-16
1.01229e-05
6.61121e-15
1.0821e-05
1.37057e-14
1.15192e-05
1.01866e-14
1.22173e-05
1.82193e-14
1.29154e-05
1.43707e-14
1.36136e-05
2.33407e-14
1.43117e-05
-2.53411e-14
1.50098e-05
2.90758e-14
1.5708e-05
-7.82719e-15
1.64061e-05
3.54168e-14
1.71042e-05
-4.5124e-15
1.78024e-05
4.23716e-14
1.85005e-05
-5.83815e-16
1.91986e-05
-8.73435e-15
1.98967e-05
2.05949e-05
-4.63034e-15
4.53785e-06
5.7973e-15
5.23599e-06
-1.61505e-14
5.93412e-06
-5.97416e-15
6.63225e-06
-8.55502e-15
7.33038e-06
4.22454e-15
8.02851e-06
-8.18727e-15
8.72664e-06
6.9993e-15
9.42478e-06
-2.42292e-14
1.01229e-05
-7.76923e-15
1.0821e-05
-2.27632e-14
1.15192e-05
8.35204e-15
1.22173e-05
-7.40256e-15
1.29154e-05
2.82667e-14
1.36136e-05
-4.57108e-14
1.43117e-05
-8.21985e-15
1.50098e-05
-2.82264e-14
1.5708e-05
-2.33637e-15
1.64061e-05
-6.94152e-15
1.71042e-05
2.21539e-14
1.78024e-05
-3.41076e-14
1.85005e-05
-3.74172e-15
1.91986e-05
-3.23456e-14
1.98967e-05
2.05949e-05
-8.92495e-15
4.53785e-06
-2.28864e-15
5.23599e-06
-2.22373e-15
5.93412e-06
6.61597e-15
6.63225e-06
-3.38758e-15
7.33038e-06
-3.90637e-15
8.02851e-06
-6.41858e-15
8.72664e-06
-7.15811e-15
9.42478e-06
6.80997e-15
1.01229e-05
6.98409e-15
1.0821e-05
-9.06567e-15
1.15192e-05
6.76104e-15
1.22173e-05
-2.88872e-14
1.29154e-05
-1.22345e-14
1.36136e-05
4.8045e-15
1.43117e-05
2.50276e-14
1.50098e-05
3.86263e-15
1.5708e-05
3.61101e-15
1.64061e-05
-2.04808e-14
1.71042e-05
-2.17583e-14
1.78024e-05
3.46876e-15
1.85005e-05
2.90425e-14
1.91986e-05
-1.66176e-15
1.98967e-05
2.05949e-05
6.21583e-15
4.53785e-06
-3.87915e-15
5.23599e-06
1.5422e-14
5.93412e-06
-7.0646e-15
6.63225e-06
-2.20967e-15
7.33038e-06
1.42988e-15
8.02851e-06
-5.493e-15
8.72664e-06
1.32259e-14
9.42478e-06
6.04641e-15
1.01229e-05
-1.74489e-14
1.0821e-05
2.08873e-14
1.15192e-05
-2.14435e-14
1.22173e-05
1.91349e-14
1.29154e-05
-7.31575e-15
1.36136e-05
3.84873e-14
1.43117e-05
-1.29184e-14
1.50098e-05
-1.88144e-15
1.5708e-05
5.71951e-15
1.64061e-05
-7.58574e-15
1.71042e-05
2.76595e-14
1.78024e-05
1.41019e-14
1.85005e-05
-5.31405e-14
1.91986e-05
3.90869e-14
1.98967e-05
2.05949e-05
-1.49877e-15
4.53785e-06
1.08971e-14
5.23599e-06
-6.59953e-15
5.93412e-06
7.2655e-15
6.63225e-06
6.17466e-15
7.33038e-06
2.48942e-15
8.02851e-06
-9.63945e-16
8.72664e-06
-4.36548e-15
9.42478e-06
-8.89999e-15
1.01229e-05
1.38622e-14
1.0821e-05
1.06909e-14
1.15192e-05
6.25159e-15
1.22173e-05
-1.27101e-16
1.29154e-05
-3.4376e-15
1.36136e-05
-1.10433e-14
1.43117e-05
-1.77598e-14
1.50098e-05
1.76815e-14
1.5708e-05
9.95769e-15
1.64061e-05
3.33141e-15
1.71042e-05
-3.29658e-14
1.78024e-05
-1.042e-14
1.85005e-05
3.00656e-14
1.91986e-05
-5.99947e-14
1.98967e-05
2.05949e-05
5.17012e-15
4.53785e-06
-7.45564e-15
5.23599e-06
-7.56659e-16
5.93412e-06
6.84003e-15
6.63225e-06
-9.97424e-15
7.33038e-06
-1.66359e-15
8.02851e-06
9.21919e-15
8.72664e-06
-1.3459e-14
9.42478e-06
2.3221e-14
1.01229e-05
1.04724e-14
1.0821e-05
-1.72707e-14
1.15192e-05
-3.02664e-15
1.22173e-05
1.13997e-14
1.29154e-05
-1.98144e-14
1.36136e-05
-4.68013e-15
1.43117e-05
5.03067e-14
1.50098e-05
-2.40488e-14
1.5708e-05
-6.65435e-15
1.64061e-05
1.42622e-14
1.71042e-05
1.65066e-15
1.78024e-05
-6.80871e-15
1.85005e-05
1.44406e-14
1.91986e-05
5.07573e-14
1.98967e-05
2.05949e-05
-6.1972e-15
4.53785e-06
2.85715e-17
5.23599e-06
1.15118e-14
5.93412e-06
-2.06258e-14
6.63225e-06
5.36688e-15
7.33038e-06
1.22149e-15
8.02851e-06
-4.61483e-17
8.72664e-06
1.23937e-14
9.42478e-06
-1.32262e-14
1.01229e-05
-1.8895e-14
1.0821e-05
-4.96407e-15
1.15192e-05
-7.15121e-15
1.22173e-05
-1.48861e-14
1.29154e-05
3.53403e-14
1.36136e-05
-6.50855e-19
1.43117e-05
-4.31385e-14
1.50098e-05
1.35605e-14
1.5708e-05
-2.82574e-14
1.64061e-05
2.45471e-15
1.71042e-05
-1.02412e-14
1.78024e-05
2.38056e-14
1.85005e-05
1.38735e-14
1.91986e-05
-4.55576e-14
1.98967e-05
2.05949e-05
-1.90672e-15
4.53785e-06
1.13069e-15
5.23599e-06
-2.16618e-14
5.93412e-06
9.62403e-15
6.63225e-06
1.51372e-14
7.33038e-06
-1.40649e-14
8.02851e-06
8.09282e-15
8.72664e-06
-2.69596e-14
9.42478e-06
-1.96603e-15
1.01229e-05
2.97166e-14
1.0821e-05
-1.17444e-14
1.15192e-05
1.98675e-14
1.22173e-05
-2.74442e-14
1.29154e-05
-2.06164e-14
1.36136e-05
1.60402e-14
1.43117e-05
-4.61329e-15
1.50098e-05
4.69464e-15
1.5708e-05
4.79678e-14
1.64061e-05
-1.37374e-14
1.71042e-05
3.23713e-14
1.78024e-05
-3.5184e-14
1.85005e-05
-2.49036e-14
1.91986e-05
7.19167e-14
1.98967e-05
2.05949e-05
1.90662e-15
4.53785e-06
-1.13071e-15
5.23599e-06
2.16617e-14
5.93412e-06
-9.62446e-15
6.63225e-06
-1.51367e-14
7.33038e-06
1.40658e-14
8.02851e-06
-8.09281e-15
8.72664e-06
2.69603e-14
9.42478e-06
1.96593e-15
1.01229e-05
-2.97175e-14
1.0821e-05
1.17447e-14
1.15192e-05
-1.98659e-14
1.22173e-05
2.74451e-14
1.29154e-05
2.06147e-14
1.36136e-05
-1.60406e-14
1.43117e-05
4.61351e-15
1.50098e-05
-4.69059e-15
1.5708e-05
-4.79643e-14
1.64061e-05
1.37431e-14
1.71042e-05
-3.23712e-14
1.78024e-05
3.51833e-14
1.85005e-05
2.49045e-14
1.91986e-05
-7.19118e-14
1.98967e-05
2.05949e-05
6.19731e-15
4.53785e-06
-2.86109e-17
5.23599e-06
-1.15116e-14
5.93412e-06
2.06256e-14
6.63225e-06
-5.36686e-15
7.33038e-06
-1.22126e-15
8.02851e-06
4.7618e-17
8.72664e-06
-1.23922e-14
9.42478e-06
1.3225e-14
1.01229e-05
1.88945e-14
1.0821e-05
4.96465e-15
1.15192e-05
7.15448e-15
1.22173e-05
1.48849e-14
1.29154e-05
-3.53377e-14
1.36136e-05
1.59814e-19
1.43117e-05
4.31396e-14
1.50098e-05
-1.35635e-14
1.5708e-05
2.82572e-14
1.64061e-05
-2.45085e-15
1.71042e-05
1.0242e-14
1.78024e-05
-2.38058e-14
1.85005e-05
-1.38689e-14
1.91986e-05
4.55675e-14
1.98967e-05
2.05949e-05
-5.17004e-15
4.53785e-06
7.45549e-15
5.23599e-06
7.56543e-16
5.93412e-06
-6.83958e-15
6.63225e-06
9.97438e-15
7.33038e-06
1.66505e-15
8.02851e-06
-9.21892e-15
8.72664e-06
1.34595e-14
9.42478e-06
-2.32216e-14
1.01229e-05
-1.04726e-14
1.0821e-05
1.72711e-14
1.15192e-05
3.02617e-15
1.22173e-05
-1.13992e-14
1.29154e-05
1.98187e-14
1.36136e-05
4.67942e-15
1.43117e-05
-5.03075e-14
1.50098e-05
2.4048e-14
1.5708e-05