/*--------------------------------*- C++ -*----------------------------------*\
  =========                 |
  \\      /  F ield         | OpenFOAM: The Open Source CFD Toolbox
   \\    /   O peration     | Website:  https://openfoam.org
    \\  /    A nd           | Version:  11
     \\/     M anipulation  |
\*---------------------------------------------------------------------------*/
FoamFile
{
    format      ascii;
    class       volScalarField;
    location    "0.86";
    object      nut;
}
// * * * * * * * * * * * * * * * * * * * * * * * * * * * * * * * * * * * * * //

dimensions      [0 2 -1 0 0 0 0];

internalField   nonuniform List<scalar> 
2880
(
1.20687e-06
1.37047e-05
4.82977e-05
0.000115934
0.000197968
6.06233e-05
3.68825e-05
0.000115542
0.000222771
0.000361969
0.000431773
0.000535332
5.23691e-05
0.000239713
0.000425868
0.000634499
0.000817646
0.00102061
5.85169e-05
0.000347825
0.0006108
0.000876716
0.00113106
0.00139761
6.33985e-05
0.000435116
0.00076808
0.00107855
0.00137267
0.0016581
6.72556e-05
0.000504162
0.000896852
0.00124133
0.00155572
0.00183827
7.02671e-05
0.000558106
0.000999484
0.00136911
0.00169281
0.00196279
7.25667e-05
0.000599807
0.00107889
0.00146624
0.001793
0.00204706
7.4256e-05
0.000631433
0.00113778
0.00153661
0.00186325
0.00210166
7.54114e-05
0.000654418
0.00117839
0.00158356
0.00190839
0.00213354
7.60899e-05
0.000669589
0.0012023
0.00160974
0.00193174
0.00214715
7.63311e-05
0.000677239
0.00121055
0.00161675
0.00193565
0.00214529
7.61627e-05
0.000677262
0.00120365
0.00160517
0.00192118
0.00212836
7.55989e-05
0.000669264
0.00118155
0.00157576
0.00189024
0.00209816
7.46387e-05
0.000652688
0.00114408
0.001528
0.00184174
0.00205327
7.3232e-05
0.000627124
0.00109058
0.00146094
0.00177387
0.00199199
7.1322e-05
0.000591772
0.00102003
0.0013734
0.00168349
0.00191112
6.88356e-05
0.000545452
0.000931218
0.00126355
0.0015671
0.00180617
6.56739e-05
0.000486532
0.000822771
0.0011286
0.00142054
0.0016688
6.1701e-05
0.000413436
0.000693458
0.000965875
0.00123888
0.00148625
5.6727e-05
0.000324361
0.000542719
0.000773999
0.00101815
0.00123857
5.04794e-05
0.00021872
0.00037195
0.000553961
0.000758006
0.000901468
3.36942e-05
0.000101039
0.000189396
0.000315083
0.000470056
0.000478138
9.8231e-07
1.04057e-05
3.83856e-05
0.000100094
0.000199723
5.70986e-05
0.000624266
0.00142884
0.00181407
0.00197219
0.00205349
0.00215719
0.0023434
0.00262701
0.00298359
0.00337181
0.00373076
0.0040494
0.00432341
0.00454542
0.00470501
0.00479138
0.00479749
0.00472404
0.00458131
0.00438752
0.00416403
0.00393082
0.00370552
0.00350051
0.00120302
0.00174828
0.00197182
0.0020704
0.00212949
0.00223304
0.0024333
0.00273471
0.00310343
0.00349312
0.00384035
0.0041414
0.00439363
0.00459014
0.00472045
0.00477409
0.00474567
0.00463952
0.00447126
0.0042646
0.00404425
0.00383026
0.00363728
0.00347326
0.00158415
0.0019526
0.00208875
0.00215152
0.00219856
0.00230779
0.00252462
0.00284318
0.00322135
0.00360732
0.00394069
0.00422296
0.00445267
0.00462291
0.00472293
0.00474269
0.00467906
0.00454112
0.00435077
0.00413701
0.00392627
0.00373619
0.00357635
0.00344927
0.00183447
0.00208996
0.00217453
0.0022178
0.00226131
0.00238121
0.00261632
0.00295092
0.00333592
0.0037137
0.00403199
0.00429503
0.00450199
0.00464562
0.00471477
0.00470013
0.00460174
0.00443456
0.00422726
0.00401302
0.00381758
0.00365387
0.0035253
0.00342942
0.0020053
0.00218742
0.00223864
0.00227249
0.00231872
0.00245297
0.00270715
0.00305626
0.0034457
0.00381264
0.00411503
0.0043588
0.00454319
0.00466025
0.00469843
0.00464968
0.00451823
0.00432586
0.00410776
0.00389932
0.00372302
0.00358561
0.00348458
0.00341371
0.00212303
0.00225576
0.00228696
0.00231797
0.00237142
0.00252248
0.00279571
0.00315771
0.00354961
0.00390415
0.00419049
0.00441547
0.00457784
0.00466878
0.00467647
0.0045948
0.00443318
0.00422072
0.00399806
0.00380031
0.00364464
0.0035314
0.00345331
0.00340176
0.00220319
0.00230263
0.00232368
0.00235604
0.00241973
0.00258892
0.00288063
0.00325391
0.00364685
0.00398837
0.00425917
0.00446624
0.00460751
0.00467316
0.00465146
0.00453891
0.00435096
0.00412394
0.00390216
0.00371807
0.0035824
0.00348985
0.00343005
0.00339296
0.00225618
0.00233359
0.00235163
0.00238784
0.00246356
0.00265132
0.00296055
0.00334373
0.00373682
0.00406555
0.00432187
0.00451231
0.00463371
0.00467535
0.00462593
0.00448533
0.00427545
0.00403912
0.00382227
0.00365285
0.00353508
0.00345918
0.00341317
0.00338659
0.00228883
0.00235251
0.0023726
0.00241395
0.00250251
0.0027086
0.00303423
0.00342623
0.00381905
0.00413603
0.00437942
0.00455484
0.00465795
0.00467724
0.00460236
0.00443709
0.00420982
0.00396862
0.00375907
0.0036037
0.00350098
0.00343748
0.00340123
0.00338222
0.00230585
0.00236193
0.00238754
0.00243446
0.00253589
0.00275961
0.00310059
0.00350065
0.00389301
0.0042001
0.0044326
0.00459494
0.00468163
0.00468067
0.00458307
0.00439686
0.00415644
0.00391362
0.00371211
0.00356886
0.00347767
0.0034229
0.00339406
0.00337956
0.00231027
0.00236341
0.00239677
0.00244907
0.00256283
0.00280321
0.00315873
0.00356683
0.00395732
0.00425798
0.00448214
0.00463361
0.00470603
0.00468728
0.00457007
0.00436673
0.00411684
0.00387441
0.00368031
0.00354665
0.00346312
0.00341501
0.0033902
0.00337816
0.00230389
0.00235777
0.00240019
0.00245721
0.00258232
0.00283826
0.00320763
0.00362391
0.00401337
0.00431041
0.00452875
0.00467169
0.00473224
0.00469842
0.00456496
0.00434823
0.00409184
0.00385064
0.00366227
0.00353496
0.00345633
0.00341174
0.0033888
0.00337763
0.00228763
0.00234524
0.00239735
0.0024581
0.0025933
0.00286368
0.00324644
0.00367143
0.00406203
0.00435801
0.00457304
0.00470987
0.00476108
0.00471517
0.00456888
0.00434226
0.00408161
0.00384182
0.00365704
0.0035333
0.00345772
0.00341339
0.00338987
0.00337791
0.00226157
0.0023257
0.00238757
0.00245083
0.0025947
0.00287848
0.00327445
0.00370909
0.00410356
0.00440112
0.00461535
0.00474856
0.00479321
0.00473829
0.00458224
0.00434825
0.00408538
0.00384567
0.003663
0.00354006
0.00346389
0.0034189
0.00339309
0.00337879
0.00222591
0.00229882
0.00236989
0.00243435
0.00258547
0.00288176
0.00329107
0.00373661
0.00413795
0.00443981
0.00465582
0.00478791
0.00482745
0.00476524
0.0046035
0.00436779
0.00410321
0.00386366
0.00367991
0.00355485
0.00347566
0.00342721
0.00339794
0.00338035
0.00217911
0.00226404
0.0023432
0.00240794
0.00256462
0.00287277
0.00329584
0.00375377
0.00416508
0.00447393
0.00469371
0.00482598
0.00486412
0.00480039
0.00463839
0.00439984
0.00413473
0.00389382
0.00370693
0.00357727
0.0034928
0.00343897
0.0034046
0.00338245
0.00212007
0.00222096
0.00230481
0.00237004
0.00253231
0.00285141
0.00328842
0.00376032
0.00418471
0.00450302
0.00472931
0.00486592
0.00490677
0.00484468
0.00468136
0.00444359
0.00417871
0.00393561
0.00374369
0.00360719
0.00351533
0.00345429
0.00341327
0.00338526
0.00204616
0.00216851
0.00225336
0.00231978
0.00248708
0.00281781
0.00326946
0.00375646
0.00419679
0.00452767
0.00476352
0.00490719
0.00495284
0.00489297
0.00473246
0.00449791
0.00423424
0.00398846
0.00378996
0.00364466
0.00354346
0.00347343
0.00342422
0.00338895
0.00195352
0.00210428
0.00218933
0.00225718
0.00242887
0.00277131
0.00323858
0.00374232
0.00420123
0.00454712
0.00479483
0.00494731
0.00499932
0.00494527
0.00479094
0.00456174
0.00430035
0.00405178
0.00384564
0.0036899
0.00357753
0.00349677
0.00343776
0.00339376
0.00183687
0.00202555
0.00211198
0.00218228
0.00235826
0.00271243
0.00319623
0.00371828
0.00419792
0.00456097
0.00482262
0.00498618
0.00504722
0.00500159
0.00485569
0.0046338
0.00437595
0.00412494
0.0039106
0.00374315
0.00361797
0.00352474
0.00345425
0.00339985
0.00168762
0.00192827
0.00201975
0.00209498
0.00227582
0.00264235
0.00314365
0.00368519
0.00418695
0.00456888
0.00484637
0.00502307
0.00509544
0.00506054
0.00492526
0.00471258
0.00445973
0.00420712
0.0039846
0.00380463
0.00366522
0.00355782
0.00347409
0.00340747
0.0014858
0.0018053
0.00190997
0.00199497
0.00218255
0.00256331
0.00308287
0.00364456
0.00416852
0.00457065
0.00486551
0.00505713
0.00514283
0.00512074
0.00499807
0.00479644
0.00455022
0.00429728
0.00406716
0.00387437
0.00371964
0.00359647
0.00349763
0.00341677
0.00119137
0.00164314
0.00177839
0.00188205
0.00208188
0.00248017
0.00301777
0.00359852
0.00414311
0.00456621
0.00487953
0.0050875
0.00518823
0.00518076
0.00507251
0.00488367
0.00464581
0.00439414
0.00415756
0.00395223
0.00378153
0.00364117
0.00352513
0.00342785
0.000688686
0.00142248
0.00162514
0.00176397
0.00198526
0.00240041
0.00295324
0.00354978
0.00411294
0.00455596
0.00488807
0.00511342
0.00523055
0.00523926
0.005147
0.0049726
0.00474487
0.00449633
0.00425487
0.00403781
0.00385092
0.00369216
0.00355684
0.00344069
1.30585e-06
3.67199e-06
9.95318e-06
2.06482e-05
4.55939e-05
0.000199728
3.53861e-05
5.68336e-05
0.000101634
0.000123788
0.000153498
0.00021509
0.000194811
0.000111819
0.000180135
0.000197771
0.00022729
0.000336361
4.95352e-05
0.000134724
0.000229218
0.000249301
0.000285783
0.000406685
5.38537e-05
0.000165077
0.000267353
0.000290049
0.000341424
0.000454024
5.64853e-05
0.000197595
0.000299927
0.000323275
0.000388872
0.000490252
5.84796e-05
0.000229856
0.000328603
0.000355757
0.000428647
0.000517148
6.00941e-05
0.000260497
0.000354675
0.000389211
0.000458259
0.00054301
6.14091e-05
0.000288497
0.000379083
0.000420962
0.000482295
0.000567962
6.24645e-05
0.000312943
0.000402101
0.00044985
0.000501698
0.000591205
6.32924e-05
0.000333611
0.00042399
0.000475606
0.000520454
0.000611686
6.38978e-05
0.000350372
0.000444525
0.000498544
0.000539166
0.000629032
6.41858e-05
0.00036379
0.000463028
0.000519637
0.000557875
0.000643709
6.415e-05
0.000373421
0.000478879
0.000539347
0.000577145
0.000656638
6.37868e-05
0.000378461
0.000491331
0.000557602
0.000597186
0.000669837
6.30864e-05
0.000378529
0.000499243
0.000573737
0.000617274
0.000678876
6.20199e-05
0.000372048
0.00050087
0.000586432
0.000637941
0.00069133
6.05375e-05
0.000357032
0.000493643
0.000592831
0.000657439
0.000702328
5.85547e-05
0.000330813
0.000474022
0.000587967
0.000669309
0.000709168
5.59285e-05
0.00029101
0.000437561
0.000564649
0.000660649
0.000704634
5.24012e-05
0.00023507
0.000378169
0.000511893
0.000618856
0.000671205
4.7472e-05
0.000162006
0.000288548
0.000417846
0.000532743
0.00056808
2.99488e-05
7.57781e-05
0.000165361
0.000270094
0.000378556
0.000339839
1.07076e-06
9.85673e-06
3.66632e-05
8.63504e-05
0.000159504
4.60632e-05
0.000655892
0.00134689
0.0015354
0.00167975
0.0019104
0.00233398
0.00289464
0.00350152
0.00407932
0.00454019
0.00489087
0.0051342
0.00526881
0.00529498
0.00522012
0.00506165
0.0048458
0.00460239
0.00435794
0.00413041
0.00392754
0.00374942
0.00359288
0.00345528
0.000665718
0.00128978
0.00149225
0.00162782
0.00185672
0.0022798
0.00284209
0.00345405
0.0040423
0.00451889
0.00488762
0.00514925
0.00530212
0.00534681
0.00529051
0.00514931
0.00494699
0.00471071
0.00446536
0.00422898
0.00401075
0.00381269
0.00363326
0.00347154
0.00068587
0.00123337
0.00144501
0.00158614
0.00181681
0.00223518
0.00279321
0.00340718
0.00400074
0.00449185
0.00487803
0.00515801
0.00532966
0.00539363
0.00535684
0.00523405
0.00504674
0.00481951
0.00457541
0.00433204
0.00409949
0.00388133
0.0036777
0.00348927
0.000714386
0.00120346
0.00138442
0.00153561
0.00177843
0.0021947
0.00274767
0.00335945
0.00395545
0.00445916
0.00486183
0.0051599
0.00535054
0.00543431
0.00541769
0.0053142
0.00514319
0.00492676
0.004686
0.00443765
0.00419212
0.00395421
0.00372573
0.0035082
0.000746358
0.00117945
0.00135077
0.00147994
0.00173557
0.00215206
0.0027015
0.0033094
0.00390628
0.00442059
0.00483859
0.00515421
0.00536377
0.00546753
0.00547151
0.00538799
0.00523429
0.0050302
0.00479476
0.00454348
0.00428667
0.00402982
0.00377603
0.00352742
0.000778878
0.00115708
0.00131863
0.00143893
0.00168411
0.00210423
0.00265059
0.00325576
0.00385247
0.00437563
0.00480769
0.0051401
0.0053682
0.00549189
0.00551661
0.00545345
0.00531787
0.00512741
0.00489904
0.00464686
0.00438056
0.00410584
0.00382657
0.00354538
0.000807291
0.00113499
0.00128816
0.00141058
0.00164147
0.00205154
0.00259409
0.00319757
0.00379304
0.00432352
0.00476834
0.00511657
0.00536259
0.00550586
0.00555123
0.00550861
0.00539168
0.00521588
0.00499611
0.00474485
0.00447082
0.00417935
0.00387459
0.00355987
0.000829317
0.00111271
0.00125796
0.00138173
0.00160597
0.00200159
0.00253295
0.0031324
0.00372693
0.00426341
0.0047196
0.00508252
0.00534562
0.00550791
0.00557361
0.0055515
0.00545357
0.00529321
0.00508329
0.00483453
0.00455431
0.00424713
0.00391681
0.00356792
0.000844234
0.00108997
0.00122715
0.00135193
0.00157357
0.00195317
0.00246878
0.00306165
0.00365383
0.00419457
0.00466054
0.00503682
0.00531598
0.00549656
0.00558216
0.00558045
0.00550176
0.00535751
0.00515851
0.00491355
0.00462843
0.00430625
0.00394989
0.00356584
0.000851993
0.00106648
0.00119521
0.00132029
0.00154068
0.0019038
0.00240253
0.00298449
0.00357239
0.00411598
0.0045901
0.00497828
0.00527235
0.00547045
0.00557556
0.00559427
0.00553529
0.00540805
0.0052212
0.00498143
0.00469254
0.00435568
0.00397172
0.0035496
0.000853143
0.00104192
0.00116172
0.0012858
0.00150389
0.00185061
0.00233446
0.00290297
0.00348206
0.00402672
0.00450712
0.00490557
0.00521335
0.00542826
0.00555278
0.00559245
0.00555445
0.00544616
0.00527395
0.00504199
0.00475145
0.00440037
0.00398542
0.00351654
0.00084869
0.00101603
0.00112664
0.00124843
0.00145549
0.00179186
0.00225931
0.00281324
0.00338254
0.00392567
0.00441015
0.00481704
0.00513726
0.00536846
0.00551277
0.00557494
0.0055608
0.00547592
0.00532446
0.00510791
0.00482378
0.00446417
0.00401438
0.00347235
0.000839964
0.000988677
0.00109027
0.00120823
0.00140223
0.00172558
0.00217562
0.00271117
0.00327109
0.00381086
0.00429716
0.00471048
0.0050417
0.00528872
0.00545369
0.00554097
0.00555567
0.00550248
0.00538479
0.00520347
0.00495431
0.00462093
0.00415598
0.0034671
0.000828571
0.000960101
0.0010535
0.00115939
0.00134524
0.00165039
0.00208324
0.002598
0.00314636
0.00368027
0.00416569
0.00458295
0.00492335
0.00518542
0.00537177
0.005487
0.00553634
0.00552512
0.00545897
0.00534481
0.00519207
0.00501388
0.00483127
0.00469272
0.000815216
0.000930471
0.00101319
0.00111118
0.00128213
0.0015708
0.00197733
0.00247264
0.00300673
0.00353163
0.00401288
0.00443099
0.00477806
0.00505362
0.00526117
0.00540591
0.00549341
0.00552929
0.00551962
0.00547207
0.00539731
0.00531003
0.0052376
0.00520602
0.000806076
0.000902411
0.000974005
0.00106085
0.00121627
0.00148014
0.00186166
0.00233437
0.00285065
0.00336269
0.00383582
0.004251
0.00460143
0.00488792
0.0051151
0.00528888
0.00541502
0.00549855
0.00554409
0.00555723
0.00554703
0.00552318
0.00550171
0.00550434
0.000793537
0.000872912
0.000933661
0.00100889
0.00114566
0.00138385
0.00173682
0.00218284
0.00267684
0.00317144
0.00363196
0.00403989
0.00438964
0.00468342
0.00492707
0.00512717
0.00528929
0.00541722
0.00551124
0.00557926
0.0056278
0.00565039
0.00566654
0.00568802
0.00078789
0.000847071
0.000894763
0.000956544
0.00107318
0.00128325
0.00160371
0.00201815
0.00248459
0.00295662
0.00339962
0.00379564
0.00414014
0.00443668
0.00469233
0.00491437
0.00510812
0.00527072
0.005407
0.00553438
0.00562511
0.00568803
0.00573366
0.00576878
0.000786465
0.0008253
0.00085832
0.000905348
0.0010006
0.00118022
0.00146401
0.00184124
0.0022742
0.00271807
0.00313852
0.00351787
0.00385231
0.00414652
0.00440875
0.00464729
0.00486167
0.00505386
0.00523663
0.00540745
0.0055376
0.00563694
0.00570837
0.00575513
0.000779743
0.00080516
0.000824711
0.000856503
0.000929376
0.00107651
0.00131972
0.00165403
0.00204725
0.00245722
0.00285018
0.00320836
0.00352808
0.00381458
0.00407734
0.00432331
0.00455021
0.0047689
0.00498576
0.00519562
0.00536443
0.00549796
0.00559398
0.00565196
0.000751038
0.000778618
0.000791441
0.00081098
0.000862955
0.000977215
0.00117643
0.00146166
0.00180808
0.00217794
0.00253853
0.00287145
0.00317221
0.00344581
0.00370251
0.00394458
0.00417915
0.00441486
0.00465165
0.00489464
0.00510189
0.00526851
0.00538958
0.00545944
0.000662913
0.000729498
0.000749039
0.000762097
0.000795492
0.000877877
0.0010326
0.00126585
0.00156069
0.00188546
0.00220958
0.00251398
0.00279248
0.00304866
0.00329258
0.00352371
0.00375587
0.0039971
0.00423935
0.00450229
0.00474586
0.00494442
0.00509231
0.00517587
0.000493231
0.000636062
0.000691126
0.000715256
0.000740019
0.00079454
0.000903825
0.00108028
0.00131689
0.00159029
0.0018733
0.00214606
0.00239977
0.0026353
0.0028609
0.00307579
0.00329447
0.00352676
0.00376848
0.00402482
0.00429284
0.00452492
0.00470144
0.00480139
0.000238529
0.000414514
0.000550358
0.000614099
0.00065546
0.000702556
0.000781284
0.000909177
0.00108882
0.00130744
0.00154451
0.00178168
0.00200797
0.00222055
0.00242456
0.00262004
0.00281723
0.0030279
0.0032552
0.00349502
0.00375333
0.00401146
0.00422021
0.00434033
8.4854e-07
3.80318e-06
1.23795e-05
2.81333e-05
5.08497e-05
8.35635e-05
2.96018e-05
6.55866e-05
0.000121087
0.000178866
0.000237346
0.000277334
0.000168373
0.000148231
0.000250637
0.000347525
0.000432405
0.000474415
0.000184223
0.000212291
0.000359284
0.00048881
0.00059355
0.000648494
0.000194911
0.000256518
0.000446211
0.000602415
0.0007238
0.000795013
4.76259e-05
0.000283133
0.00051592
0.000694738
0.000830429
0.000917176
4.96688e-05
0.000311253
0.00057186
0.000769157
0.000917281
0.00101831
5.13185e-05
0.000338327
0.000617527
0.000828868
0.000988022
0.00110201
5.26138e-05
0.00036307
0.000654468
0.00087587
0.00104496
0.00117056
5.35899e-05
0.000384465
0.000682991
0.000911439
0.00108946
0.00122545
5.42797e-05
0.000401429
0.000702882
0.000936243
0.00112226
0.00126761
5.47171e-05
0.000412762
0.000713722
0.000950466
0.0011436
0.00129759
5.48884e-05
0.00041778
0.000715147
0.000953759
0.00115332
0.00131557
5.47713e-05
0.000416414
0.000706558
0.000945516
0.00115089
0.00132135
5.43252e-05
0.000408681
0.000687633
0.000924891
0.00113528
0.00131426
5.35363e-05
0.000394139
0.000657557
0.000890789
0.00110525
0.00129316
5.23872e-05
0.000372236
0.000615611
0.000841861
0.00105878
0.00125606
5.08391e-05
0.000342272
0.00056111
0.000776578
0.000993345
0.00120002
4.86662e-05
0.000303531
0.000493524
0.000693579
0.000905871
0.00112064
0.000201509
0.000255489
0.000412803
0.000591583
0.000792745
0.00101213
0.000188389
0.000196576
0.000319398
0.000470006
0.000650552
0.000867266
0.000170783
0.000127928
0.000214702
0.000330142
0.000478442
0.000678364
2.9593e-05
5.42697e-05
0.00010344
0.00017843
0.000283396
0.000443504
8.17743e-07
4.06395e-06
1.67033e-05
4.63418e-05
9.92553e-05
0.000193218
0.00018494
0.000306093
0.000426902
0.000510253
0.000559954
0.000605315
0.0006633
0.000750575
0.000876846
0.00104065
0.00123046
0.00143094
0.00162939
0.0018192
0.00200083
0.00217656
0.00234947
0.00253059
0.00272881
0.00294619
0.00317588
0.00341824
0.00365298
0.00380999
0.000259442
0.000317275
0.000359894
0.000431683
0.000472117
0.00051363
0.000562742
0.000627925
0.000717765
0.000834935
0.000975721
0.00113149
0.00129295
0.00145352
0.00161003
0.00176375
0.00191426
0.00206683
0.00222964
0.0024098
0.00260962
0.00281869
0.00303103
0.00322995
0.000434068
0.000410334
0.000424512
0.00044284
0.000465956
0.000476996
0.000500582
0.000539891
0.00059089
0.00066135
0.000751147
0.00085823
0.000979988
0.0011141
0.00125404
0.00139366
0.00152986
0.00166093
0.00179186
0.00193213
0.00208937
0.00226524
0.00244416
0.00263916
0.000633091
0.000578008
0.000565187
0.000577149
0.000579416
0.00057619
0.000569022
0.000565593
0.000577062
0.000610103
0.000653853
0.000711301
0.000783997
0.000868816
0.000962541
0.00106261
0.00116781
0.00127943
0.00139748
0.00152362
0.0016526
0.00178683
0.00194694
0.00209829
0.000809522
0.000769831
0.000753076
0.000756673
0.000769122
0.000771769
0.000770498
0.000765159
0.000760156
0.000754504
0.000756694
0.000767692
0.000789019
0.000818852
0.000857511
0.000905863
0.000964856
0.00103387
0.00111049
0.00119454
0.00128772
0.00139098
0.00152466
0.00165607
0.000959061
0.000951721
0.00094786
0.00095916
0.000979012
0.00100221
0.00102264
0.00103226
0.0010432
0.00105199
0.00105319
0.0010533
0.00104957
0.00104408
0.00103847
0.00103515
0.00103654
0.00104435
0.00105956
0.00108426
0.0011214
0.00117123
0.00123291
0.00134235
0.00108412
0.00110943
0.00112693
0.00115293
0.00118762
0.00122601
0.00126716
0.00130305
0.00133767
0.00136186
0.00137856
0.00139813
0.00140438
0.00140174
0.00139151
0.00137369
0.00134987
0.0013223
0.00129379
0.00126661
0.00124283
0.00122767
0.00121675
0.00125428
0.00118845
0.00124096
0.00127995
0.00132222
0.00137155
0.00142546
0.00148135
0.00153592
0.00158747
0.00163205
0.00167113
0.00170012
0.00171679
0.00173219
0.00173479
0.00172322
0.00170164
0.00167064
0.0016315
0.00158635
0.00153735
0.00148719
0.00143591
0.00142366
0.00127419
0.00134798
0.0014048
0.00146065
0.00152057
0.00158483
0.00165068
0.00171508
0.00177538
0.001829
0.00187488
0.00191126
0.00193853
0.00195408
0.00196708
0.00197039
0.00196119
0.00194353
0.00191708
0.00188131
0.00183723
0.00178687
0.00173297
0.00170359
0.0013432
0.00143322
0.00150315
0.00156805
0.00163479
0.00170388
0.00177359
0.00184143
0.00190496
0.00196214
0.00201156
0.002052
0.00208283
0.00210257
0.00211331
0.00211664
0.00210752
0.0020903
0.00206645
0.00203837
0.00200886
0.00198402
0.00196746
0.00196301
0.00139717
0.00149938
0.00157779
0.00164764
0.00171578
0.00178396
0.00185124
0.00191576
0.00197566
0.00202944
0.00207607
0.00211491
0.00214506
0.00216711
0.00218198
0.00219043
0.00219113
0.00218529
0.00217354
0.00215695
0.00213735
0.00211672
0.00209989
0.00209274
0.00143742
0.00154873
0.00163248
0.00170306
0.00176818
0.00183046
0.00188985
0.00194526
0.00199561
0.00204003
0.00207892
0.00211085
0.00213585
0.00215634
0.00217322
0.00218774
0.00219831
0.0022047
0.00220732
0.00220708
0.00220478
0.00220136
0.00219655
0.00218796
0.00146493
0.00158375
0.00167025
0.00173873
0.00179748
0.00184998
0.001897
0.00193832
0.00197389
0.00200418
0.00202733
0.00204505
0.0020592
0.00206982
0.00207668
0.00207975
0.00208164
0.00208368
0.00208809
0.00209494
0.00210341
0.00211248
0.00212122
0.00213166
0.00148024
0.00160603
0.00169417
0.00175903
0.00180944
0.00184957
0.00188075
0.00190449
0.00192025
0.00192709
0.00192578
0.00191382
0.00189309
0.00187099
0.00185444
0.0018484
0.00185228
0.00186349
0.00188407
0.00191216
0.00194599
0.00198146
0.00201316
0.00203443
0.00148362
0.00161696
0.00170692
0.00176803
0.00180962
0.00183635
0.00185002
0.00185148
0.00184026
0.00181451
0.00177743
0.00173631
0.00169842
0.00166729
0.00164395
0.0016304
0.00163474
0.00164657
0.00166692
0.0016946
0.00172801
0.0017665
0.00180865
0.001857
0.00147478
0.00161732
0.00171039
0.00176884
0.00180265
0.00181578
0.00181158
0.00179197
0.00175815
0.00171429
0.00166518
0.00161601
0.0015702
0.00153063
0.00149767
0.00146907
0.00144521
0.00143858
0.00144224
0.00145205
0.00146787
0.00149173
0.00153212
0.00156393
0.00145271
0.00160713
0.00170529
0.00176284
0.00179043
0.00179328
0.00177578
0.00174085
0.00169151
0.00163299
0.00157201
0.00151456
0.00146403
0.00142123
0.00138499
0.00135263
0.00131934
0.00129949
0.00128521
0.00127914
0.00128289
0.00129869
0.00134201
0.00142076
0.00141574
0.00158566
0.00169106
0.00174966
0.00177359
0.00176991
0.00174389
0.0017003
0.00164472
0.00158398
0.00152465
0.00147106
0.0014244
0.00138323
0.00134975
0.00130701
0.00127256
0.00123971
0.00121683
0.00120778
0.00121749
0.00125247
0.00136216
0.00150362
0.00136143
0.00155136
0.00166569
0.00172641
0.00174881
0.00174236
0.00171417
0.00167079
0.00161902
0.0015653
0.00151426
0.00146785
0.00142514
0.00138647
0.00133532
0.00129068
0.00124858
0.00121357
0.00119195
0.00119157
0.00122064
0.00129077
0.00144887
0.00161596
0.00128752
0.00150203
0.00162608
0.00168928
0.00171187
0.00170635
0.00168158
0.0016448
0.00160208
0.00155775
0.00151397
0.00147208
0.00142021
0.00136529
0.00132047
0.00127003
0.00122483
0.00119236
0.00118217
0.00120449
0.00126967
0.00139365
0.00160016
0.00179526
0.00119361
0.00143903
0.00157248
0.00163742
0.0016613
0.0016594
0.00164117
0.00161295
0.00157884
0.00154083
0.00149829
0.00144616
0.00139123
0.00134628
0.0012891
0.00123689
0.00119819
0.00118371
0.00120489
0.00127272
0.00139992
0.00160409
0.00184683
0.00208815
0.00108334
0.001367
0.00150877
0.00157451
0.00160039
0.00160322
0.00159147
0.00156955
0.00153986
0.00149299
0.0014525
0.00140482
0.00135509
0.00129592
0.00124124
0.00120164
0.00118911
0.00121525
0.00128944
0.00142149
0.00162912
0.00188977
0.00218409
0.00247512
0.000967594
0.00129548
0.00144339
0.0015085
0.00153621
0.00154281
0.0015345
0.00151331
0.00146894
0.00144484
0.0014035
0.00134579
0.00128741
0.00123566
0.00120148
0.00119726
0.00123332
0.00131571
0.00144937
0.00164767
0.00191946
0.00222731
0.00258496
0.00288538
0.000867385
0.00123789
0.00138564
0.00144774
0.00147563
0.00148318
0.00147137
0.00143852
0.0014244
0.00138599
0.00132853
0.00127264
0.00122654
0.00120173
0.00120976
0.0012577
0.00134685
0.00147837
0.00166233
0.00192379
0.00224306
0.0026165
0.00302458
0.00332802
7.89492e-07
3.71382e-06
1.65773e-05
4.99537e-05
0.000110988
4.56124e-05
2.89715e-05
4.93593e-05
9.9832e-05
0.000180603
0.000283286
0.000356994
0.000169087
0.000117356
0.0002052
0.000323246
0.000462044
0.000632657
0.000186072
0.000179668
0.000297517
0.000441934
0.000604509
0.000786423
0.000199479
0.000232827
0.000373366
0.000532389
0.000699606
0.000866094
4.86435e-05
0.000276356
0.000433198
0.000596859
0.000756158
0.00089865
5.00203e-05
0.000309665
0.000478378
0.000639418
0.000784296
0.000902543
5.12375e-05
0.000333874
0.000510601
0.000664317
0.000792178
0.000888795
5.21243e-05
0.000350044
0.000531631
0.000675379
0.000785902
0.000864012
5.26823e-05
0.00035904
0.000543156
0.000676028
0.000770027
0.000832679
5.29153e-05
0.000361815
0.000546654
0.000668474
0.000747899
0.000798609
5.2865e-05
0.000359116
0.000543406
0.00065491
0.000721864
0.000764106
5.25026e-05
0.000351077
0.000534438
0.000636824
0.000693506
0.000730952
5.19205e-05
0.000337344
0.000520536
0.000615231
0.000663722
0.00069954
5.11356e-05
0.000318711
0.000502017
0.000590584
0.000632869
0.000669739
5.01227e-05
0.000296809
0.000479161
0.000562716
0.000600512
0.000640357
4.8874e-05
0.000273644
0.000452421
0.00053109
0.000565814
0.00061096
4.7386e-05
0.000252612
0.000422225
0.00049476
0.000527857
0.000580611
0.000195788
0.000242579
0.000387668
0.000452252
0.000485653
0.000546715
0.00018856
0.00022306
0.000344735
0.00040246
0.000437352
0.000506144
0.000177091
0.000189421
0.000287169
0.000339885
0.000378483
0.000455107
0.000161435
0.00013648
0.00020829
0.00025398
0.000300775
0.000386941
2.83363e-05
6.17172e-05
0.000104335
0.000137029
0.000187402
0.000284213
8.23725e-07
3.40813e-06
9.57705e-06
1.88814e-05
3.81591e-05
0.000151629
0.000820233
0.00120559
0.00134032
0.00139625
0.00142133
0.00142007
0.00139982
0.00139113
0.00135566
0.00130444
0.00125518
0.0012184
0.00120595
0.00122721
0.00128483
0.00137582
0.00149986
0.00166763
0.0019022
0.00222956
0.0026097
0.00305123
0.00348657
0.00379026
0.000928907
0.00119767
0.00130452
0.00135201
0.00136504
0.00135761
0.0013534
0.00132287
0.00127857
0.00123811
0.00121264
0.00121309
0.00124539
0.00130789
0.00139588
0.00151014
0.00166215
0.00187421
0.0021748
0.00256805
0.00301305
0.00350877
0.00395196
0.00425299
0.00100355
0.00119022
0.00127254
0.00130644
0.00131161
0.0013125
0.00128921
0.00125313
0.00122248
0.00120846
0.00121999
0.00125924
0.00132215
0.001405
0.00151053
0.00164965
0.00184147
0.00211189
0.00248625
0.00294107
0.00344549
0.00396979
0.00440732
0.0046992
0.001039
0.00117434
0.00123836
0.00125885
0.00126716
0.00125296
0.00122682
0.00120643
0.00120293
0.00122292
0.00126584
0.00132736
0.00140577
0.00150492
0.00163398
0.00180801
0.00204892
0.00238232
0.00282579
0.00333072
0.00387741
0.00440861
0.0048317
0.00510901
0.0010462
0.00114838
0.00119164
0.00121914
0.00120997
0.00119645
0.00118678
0.00119287
0.00121956
0.00126505
0.00132577
0.00140136
0.00149568
0.00161613
0.00177431
0.00198784
0.00228014
0.0026735
0.00317421
0.00371363
0.00428174
0.0048019
0.00521333
0.00546081
0.00103367
0.0011146
0.0011552
0.00115984
0.00115957
0.00116079
0.00117575
0.00120881
0.0012577
0.0013192
0.00139325
0.00148327
0.00159558
0.00173972
0.00192961
0.00218456
0.00252674
0.00297157
0.00351221
0.00406914
0.00463838
0.00513503
0.00552745
0.00574247
0.00100725
0.00107042
0.00110419
0.00110962
0.00112518
0.00114886
0.00118955
0.00124387
0.00130808
0.00138166
0.00146771
0.0015723
0.0017041
0.00187461
0.00209868
0.00239454
0.00277993
0.0032618
0.00381984
0.00437826
0.00492871
0.0053917
0.00575656
0.00594247
0.000971742
0.00102775
0.00104958
0.00107474
0.00110952
0.00115996
0.00122227
0.00129148
0.00136618
0.00144921
0.00154684
0.00166772
0.00182215
0.00202187
0.00228028
0.00261184
0.00302791
0.00352716
0.00408407
0.00462363
0.00513688
0.00556224
0.0058883
0.0060527
0.000930221
0.000986789
0.00100642
0.00105527
0.0011165
0.00118964
0.00126724
0.00134591
0.00142792
0.00151988
0.00163095
0.00177135
0.00195142
0.00218124
0.00247072
0.00282881
0.00325975
0.00375569
0.00428998
0.00479556
0.00525767
0.00563853
0.00591999
0.00606303
0.000885243
0.000944582
0.000976653
0.00105412
0.00114132
0.00123195
0.00131897
0.00140327
0.00149169
0.0015942
0.00172179
0.00188488
0.00209231
0.00235091
0.00266553
0.00303859
0.00346759
0.00394027
0.00443052
0.00488959
0.00528726
0.00561192
0.0058483
0.00596904
0.000840175
0.000904821
0.000964291
0.00106939
0.00117911
0.00128108
0.0013732
0.00146178
0.00155778
0.00167362
0.00182103
0.00200928
0.00224433
0.00252847
0.00286062
0.00323651
0.00364771
0.00407933
0.00450819
0.00490466
0.00522804
0.00548281
0.0056695
0.00576462
0.000798999
0.000870062
0.000969018
0.00110185
0.00122618
0.00133381
0.00142853
0.00152163
0.00162739
0.00175977
0.00192995
0.0021448
0.00240622
0.00271133
0.00305311
0.00342113
0.00380202
0.00417942
0.00453394
0.0048445
0.00509243
0.00526058
0.00537699
0.00543854
0.000763995
0.000845693
0.00099113
0.00114403
0.00127712
0.00138736
0.00148422
0.00158341
0.00170184
0.00185394
0.00204915
0.00229079
0.00257614
0.00289719
0.00324168
0.00359412
0.00393715
0.00425308
0.00452532
0.0047397
0.00488563
0.00495781
0.00496286
0.00494646
0.000733569
0.000836314
0.00102178
0.00119098
0.00132959
0.0014412
0.00154086
0.00164829
0.00178235
0.00195687
0.00217838
0.00244587
0.00275194
0.00308417
0.00342627