/*--------------------------------*- C++ -*----------------------------------*\
  =========                 |
  \\      /  F ield         | OpenFOAM: The Open Source CFD Toolbox
   \\    /   O peration     | Website:  https://openfoam.org
    \\  /    A nd           | Version:  11
     \\/     M anipulation  |
\*---------------------------------------------------------------------------*/
FoamFile
{
    format      ascii;
    class       surfaceVectorField;
    location    "0.86";
    object      Uf;
}
// * * * * * * * * * * * * * * * * * * * * * * * * * * * * * * * * * * * * * //

dimensions      [0 1 -1 0 0 0 0];

internalField   nonuniform List<vector> 
5640
(
(-0.0121836 -0.0598121 4.04783e-19)
(-0.0116466 -0.0553779 -1.1375e-18)
(-0.0288131 -0.0550322 2.56194e-18)
(-0.0219185 -0.0548087 8.96565e-19)
(-0.0611135 -0.0283212 1.34045e-18)
(-0.0456054 -0.0370378 1.37196e-18)
(-0.0924333 0.0336009 6.26126e-19)
(-0.0929093 0.0128016 8.08697e-20)
(-0.176972 0.230452 -5.97236e-20)
(-0.0928022 0.0935856 0)
(-0.274417 0.433886 -1.62781e-20)
(-0.16145 0.746769 2.6299e-19)
(-0.0180812 -0.0529255 -7.54594e-19)
(-0.0158009 -0.0553218 1.24996e-18)
(-0.0371561 -0.0342138 -3.09777e-19)
(-0.0288053 -0.0389863 -8.89078e-19)
(-0.0662695 0.00149229 1.56002e-19)
(-0.0502293 -0.0126355 -4.24175e-19)
(-0.0947533 0.0834393 -5.42989e-19)
(-0.0853024 0.0451049 1.9872e-21)
(-0.103568 0.235813 -4.64132e-20)
(-0.0802883 0.152464 -4.85047e-19)
(-0.104962 0.378339 2.7067e-19)
(-0.0245571 0.564219 -1.24279e-19)
(-0.0240221 -0.043913 1.24083e-18)
(-0.0221838 -0.050776 5.5138e-20)
(-0.0407948 -0.0174895 -1.02088e-18)
(-0.0326976 -0.0262697 -2.08503e-20)
(-0.0624722 0.0251244 -5.87156e-19)
(-0.0498522 0.0048893 -5.54466e-19)
(-0.0754233 0.112756 6.88887e-20)
(-0.0719128 0.0657129 5.28461e-19)
(-0.0518356 0.253828 -1.72381e-19)
(-0.056338 0.174641 -1.35246e-19)
(-0.0226104 0.34864 6.19142e-19)
(0.0518976 0.480532 5.94227e-19)
(-0.0291094 -0.0355214 -1.20188e-18)
(-0.0281606 -0.0450795 -2.27581e-18)
(-0.0412036 -0.00496069 4.67931e-19)
(-0.0345076 -0.0166285 5.79994e-19)
(-0.054845 0.0406458 5.2871e-19)
(-0.0464888 0.0169119 5.40622e-19)
(-0.0546729 0.125447 3.41446e-19)
(-0.0563234 0.0769977 0)
(-0.013936 0.25076 6.39723e-19)
(-0.0302768 0.178055 3.51296e-19)
(0.0282803 0.316901 1.92586e-20)
(0.0936497 0.417155 3.34558e-19)
(-0.0321087 -0.0287693 -6.58883e-19)
(-0.0323126 -0.0399023 -2.84945e-20)
(-0.0395445 0.00384169 6.54477e-19)
(-0.0346501 -0.00976565 1.43564e-20)
(-0.0452021 0.0493658 3.01763e-20)
(-0.0412326 0.0241487 2.91901e-20)
(-0.0336226 0.127146 0)
(-0.0402189 0.080546 0)
(0.0177108 0.234407 -2.64513e-19)
(-0.00516123 0.169476 0)
(0.064952 0.280164 -2.7101e-19)
(0.122953 0.359971 -3.16046e-19)
(-0.0332968 -0.0236382 6.41584e-19)
(-0.0339664 -0.0358238 1.12936e-18)
(-0.0363421 0.00912862 -6.11758e-19)
(-0.0333161 -0.00546679 -2.62731e-20)
(-0.0346045 0.0522359 0)
(-0.0346796 0.0271794 0)
(-0.0135164 0.120629 0)
(-0.0244128 0.0777324 0)
(0.0444959 0.209482 0)
(0.0178474 0.152806 0)
(0.0933777 0.239486 0)
(0.146146 0.304399 0)
(-0.0324954 -0.0202579 5.28178e-19)
(-0.0331638 -0.0328753 0)
(-0.0318965 0.0112831 5.84367e-19)
(-0.0306441 -0.00336764 1.70531e-20)
(-0.0236424 0.0502348 0)
(-0.027256 0.02664 0)
(0.00513409 0.108 0)
(-0.0093497 0.0698429 -3.29229e-19)
(0.0673522 0.179289 0)
(0.0384544 0.130611 0)
(0.116481 0.196805 0)
(0.164453 0.250614 -2.63318e-19)
(-0.0299357 -0.0183741 -5.12124e-19)
(-0.0303186 -0.0308626 1.73328e-20)
(-0.026464 0.0108334 -5.66605e-19)
(-0.0268358 -0.00303221 -5.59985e-19)
(-0.0127127 0.0443456 -3.18107e-19)
(-0.0193275 0.0232142 1.69148e-19)
(0.0221144 0.0908918 -3.3846e-19)
(0.00468835 0.0580551 -1.4696e-19)
(0.0871128 0.145803 0)
(0.0566378 0.10463 0)
(0.135626 0.153058 -5.88444e-20)
(0.180368 0.197877 1.28255e-19)
(-0.0260016 -0.0176486 3.25544e-21)
(-0.0259843 -0.0295498 5.76273e-19)
(-0.0203336 0.00835431 1.44742e-19)
(-0.0221602 -0.00401289 -2.83635e-19)
(-0.00212669 0.035489 3.50838e-19)
(-0.011233 0.0175846 -2.07928e-20)
(0.0373241 0.0705955 1.87467e-19)
(0.017494 0.0434184 1.8318e-19)
(0.104128 0.110319 -5.74338e-20)
(0.0724648 0.0761585 0)
(0.151659 0.10886 -5.88444e-20)
(0.194375 0.14627 1.01275e-19)
(-0.0211247 -0.017759 3.39668e-19)
(-0.0207107 -0.0287367 8.25364e-22)
(-0.0138158 0.00440387 -4.60348e-19)
(-0.016922 -0.00589515 1.31664e-20)
(0.00782215 0.0245057 -1.95527e-19)
(-0.00327864 0.0104027 -2.01684e-19)
(0.0507093 0.0481463 8.77955e-22)
(0.0288985 0.0268354 1.56682e-19)
(0.11869 0.0736961 0)
(0.0860074 0.0461616 1.33904e-19)
(0.165134 0.0646447 0)
(0.206676 0.095775 1.34065e-19)
(-0.0157139 -0.0184351 -3.26412e-19)
(-0.0149699 -0.0282786 -5.41046e-19)
(-0.00721337 -0.000518629 2.80887e-19)
(-0.0114245 -0.00832189 1.45599e-19)
(0.0169933 0.0121075 1.38425e-19)
(0.00426875 0.00223057 9.24021e-20)
(0.0622367 0.0243774 2.90355e-19)
(0.0387738 0.00910502 1.46089e-19)
(0.131009 0.036544 1.37114e-19)
(0.0973243 0.0153693 1.28183e-22)
(0.176379 0.0206688 0)
(0.217497 0.0462601 -1.17609e-19)
(-0.0101152 -0.0194672 -1.08692e-19)
(-0.00913241 -0.0280786 8.54447e-20)
(-0.000762773 -0.00598318 -4.06791e-20)
(-0.00593621 -0.011009 -1.18434e-20)
(0.0251191 -0.00104149 9.82946e-20)
(0.0112144 -0.00639822 8.40754e-21)
(0.0718646 -2.90982e-05 -1.40055e-19)
(0.0470227 -0.00910537 -4.87358e-21)
(0.141208 -0.000704434 -1.36993e-19)
(0.106453 -0.0156499 -1.33785e-19)
(0.185561 -0.0229303 0)
(0.226963 -0.00244834 0)
(-0.00460357 -0.0206893 1.8801e-19)
(-0.00346771 -0.0280729 -7.38807e-23)
(0.00522288 -0.0116064 3.6378e-20)
(-0.000663826 -0.013709 1.22817e-19)
(0.0321063 -0.0143918 -9.42907e-20)
(0.0174335 -0.0150459 -9.57455e-20)
(0.0795653 -0.0245084 5.00991e-21)
(0.0535923 -0.0271918 4.27572e-21)
(0.149344 -0.0377384 0)
(0.113412 -0.0464182 5.31164e-22)
(0.192717 -0.0660784 0)
(0.235117 -0.0505661 -1.66923e-20)
(0.000632609 -0.0219763 -7.23675e-20)
(0.00183889 -0.02822 -7.48165e-20)
(0.010716 -0.0170906 0)
(0.00425135 -0.0162577 7.99647e-21)
(0.0379025 -0.0274402 -5.77363e-22)
(0.0228893 -0.0232932 -2.9757e-21)
(0.0853262 -0.0485481 -9.3057e-23)
(0.0584687 -0.0445853 -5.97551e-22)
(0.155418 -0.074293 5.43897e-22)
(0.118212 -0.0764842 -7.50324e-20)
(0.197764 -0.108712 7.62451e-21)
(0.241917 -0.0983379 1.67598e-20)
(0.00551247 -0.0232349 7.5631e-22)
(0.00665847 -0.0285016 5.41493e-19)
(0.0156239 -0.0221662 5.48859e-21)
(0.00873843 -0.0185225 2.68434e-19)
(0.0425178 -0.0397059 -3.07623e-21)
(0.0276313 -0.03076 -2.9757e-21)
(0.0891456 -0.0716407 -7.34449e-20)
(0.0616753 -0.0607175 -1.96891e-20)
(0.159386 -0.110086 -7.00587e-20)
(0.120869 -0.105365 1.02127e-20)
(0.200497 -0.150726 7.62451e-21)
(0.247255 -0.146023 1.69888e-20)
(0.00990043 -0.0244045 8.24911e-19)
(0.0108871 -0.0289029 6.33145e-21)
(0.0199656 -0.0266048 2.7152e-19)
(0.0127894 -0.0204305 -6.71072e-21)
(0.0460334 -0.050712 -1.90239e-20)
(0.031799 -0.0370846 -2.46669e-20)
(0.0910459 -0.0932469 6.33901e-20)
(0.0632807 -0.0749913 1.08714e-21)
(0.161167 -0.144767 8.78237e-20)
(0.121433 -0.13248 1.19862e-19)
(0.200541 -0.191902 -1.23185e-19)
(0.250925 -0.193898 -6.50024e-20)
(0.0137798 -0.0254516 -8.24649e-19)
(0.0144134 -0.0294383 -2.38266e-20)
(0.023833 -0.0302136 -3.02155e-19)
(0.0164493 -0.0219557 -2.32702e-19)
(0.0486057 -0.0599644 -5.74284e-21)
(0.0356202 -0.0419183 -1.20131e-20)
(0.0910911 -0.112747 5.44977e-20)
(0.0634064 -0.0867596 -7.52254e-22)
(0.16064 -0.177823 -8.40541e-20)
(0.12003 -0.157071 -8.79838e-22)
(0.197296 -0.231819 -6.13695e-20)
(0.252589 -0.242243 2.98178e-20)
(0.0171162 -0.0263873 5.80111e-19)
(0.0170885 -0.0301613 -1.16767e-18)
(0.0273828 -0.0328388 4.80261e-20)
(0.0198051 -0.0231367 7.03917e-20)
(0.0504701 -0.0669399 -7.21037e-21)
(0.0394114 -0.0449314 -4.50582e-19)
(0.0894205 -0.1294 -5.61262e-20)
(0.0622303 -0.0953239 -3.80317e-19)
(0.157651 -0.208451 2.21624e-20)
(0.116957 -0.178095 -3.49747e-20)
(0.189816 -0.269718 -1.25121e-19)
(0.251719 -0.291306 -2.03618e-19)
(0.0198616 -0.0272905 -1.74894e-18)
(0.0187111 -0.03118 -5.80974e-19)
(0.0308289 -0.034385 -4.06214e-19)
(0.0229717 -0.0240986 -5.77111e-19)
(0.0519469 -0.0710961 -8.25552e-19)
(0.0435811 -0.0458278 1.46554e-21)
(0.0862774 -0.142306 -3.68848e-19)
(0.0599827 -0.0999624 2.12332e-20)
(0.152064 -0.23539 -1.8286e-19)
(0.112861 -0.194096 3.11189e-19)
(0.176578 -0.304314 7.9526e-20)
(0.247512 -0.341299 -1.94559e-19)
(0.0219441 -0.0283322 5.90733e-19)
(0.0190661 -0.0326493 1.1224e-18)
(0.0344369 -0.0348446 -1.94165e-19)
(0.0260783 -0.0250834 7.61934e-21)
(0.053467 -0.0719134 8.47521e-19)
(0.0486365 -0.044375 -7.61785e-21)
(0.0820841 -0.150274 6.93039e-19)
(0.0570095 -0.0999973 8.42849e-19)
(0.14353 -0.256951 5.77357e-19)
(0.108905 -0.202874 2.67166e-19)
(0.154894 -0.33409 2.01921e-19)
(0.239297 -0.39243 4.31746e-19)
(0.0232785 -0.0297667 6.03993e-19)
(0.0181222 -0.0346599 -1.10279e-18)
(0.0385101 -0.0343074 1.95879e-19)
(0.0292475 -0.0264849 5.98214e-19)
(0.0556273 -0.0689997 -4.10219e-20)
(0.0551757 -0.0404528 8.36927e-20)
(0.0785272 -0.150908 4.33139e-19)
(0.0542808 -0.0952593 4.66477e-19)
(0.12829 -0.272413 -1.03815e-19)
(0.105872 -0.199202 -4.89154e-19)
(0.121042 -0.362497 3.41029e-19)
(0.231683 -0.442804 -2.3338e-19)
(0.0238366 -0.0317726 -1.20662e-18)
(0.0162781 -0.0370213 6.49893e-20)
(0.043341 -0.032917 5.08614e-19)
(0.0325097 -0.028901 -2.28542e-20)
(0.0591588 -0.062095 5.7789e-19)
(0.0639191 -0.034077 1.17794e-18)
(0.0756705 -0.142806 -4.30621e-19)
(0.0531668 -0.0853547 -5.61468e-19)
(0.113206 -0.273907 -9.41799e-20)
(0.108678 -0.17947 -2.93067e-19)
(0.0534086 -0.382943 3.39667e-19)
(0.200953 -0.504567 6.89744e-19)
(0.0238114 -0.0343426 1.254e-18)
(0.0148901 -0.038739 -6.40649e-20)
(0.0490481 -0.0309965 5.95375e-19)
(0.0351226 -0.0335475 0)
(0.0654585 -0.051024 9.71219e-20)
(0.0748481 -0.0262992 7.09696e-19)
(0.0789231 -0.121207 -4.27878e-19)
(0.056605 -0.0716526 -7.08625e-20)
(0.0838377 -0.261223 1.51827e-19)
(0.121134 -0.129192 1.53259e-19)
(-0.105233 -0.419848 4.37514e-20)
(0.140263 -0.581153 5.16422e-20)
(0.0239666 -0.0380635 -1.32176e-18)
(0.0551854 -0.0315953 8.27641e-20)
(0.0778472 -0.0412006 5.77253e-19)
(0.0969295 -0.0959034 5.0779e-19)
(0.0198572 -0.262922 1.35748e-20)
(0.0137479 -0.727582 -1.12163e-19)
(0.491151 0.758668 1.3146e-19)
(0.269454 0.790038 -9.06917e-20)
(0.422205 0.883616 -2.69597e-19)
(0.709743 0.661361 0)
(0.60197 0.668298 0)
(0.706008 0.706827 2.84267e-20)
(0.826438 0.573903 -6.27697e-20)
(0.74959 0.597676 7.99473e-20)
(0.825745 0.629963 -2.4633e-20)
(0.893048 0.493515 -1.74801e-19)
(0.839146 0.514327 -1.37288e-19)
(0.900844 0.541422 8.64581e-20)
(0.935176 0.423729 -1.60873e-19)
(0.894239 0.441069 -4.55615e-20)
(0.945647 0.465365 5.07613e-21)
(0.964026 0.365384 -4.96924e-20)
(0.931399 0.378967 -2.3654e-19)
(0.974917 0.400569 1.01012e-19)
(0.98545 0.31782 8.63921e-20)
(0.958382 0.328131 1.07766e-19)
(0.995684 0.347056 1.7827e-19)
(1.0024 0.27934 1.69571e-19)
(0.979364 0.287172 1.86313e-19)
(1.01175 0.303653 -8.93379e-20)
(1.01618 0.247859 8.62411e-20)
(0.996343 0.253977 -9.81604e-20)
(1.02482 0.268385 2.3318e-19)
(1.0273 0.221468 -6.50853e-20)
(1.01016 0.226492 5.75774e-21)
(1.03551 0.239208 7.72738e-20)
(1.036 0.198677 -1.31375e-19)
(1.02124 0.203022 -1.43108e-19)
(1.04399 0.214373 -6.97566e-21)
(1.04245 0.178462 -2.39651e-19)
(1.02983 0.18236 -1.30608e-19)
(1.05035 0.192594 -5.93262e-20)
(1.04683 0.16015 -1.22952e-19)
(1.03614 0.163774 -1.82312e-19)
(1.0547 0.173061 -1.22635e-19)
(1.04931 0.143276 1.12461e-19)
(1.0404 0.146754 -1.15016e-19)
(1.05717 0.155219 5.81079e-20)
(1.05002 0.12749 5.4766e-20)
(1.04278 0.130922 1.65174e-19)
(1.05788 0.138661 1.53873e-19)
(1.04904 0.112522 9.44552e-20)
(1.04339 0.115982 5.35691e-20)
(1.05692 0.123074 -9.43393e-20)
(1.04647 0.0981588 4.77572e-21)
(1.04235 0.101705 4.39609e-20)
(1.05435 0.108215 9.54822e-20)
(1.04237 0.0842464 -2.23195e-19)
(1.03972 0.0879249 -1.41136e-19)
(1.05021 0.0939059 -4.87659e-21)
(1.03681 0.0706918 -2.16939e-19)
(1.0356 0.0745184 -1.31588e-19)
(1.04457 0.0800068 -4.76253e-20)
(1.02989 0.0574576 8.33422e-20)
(1.0302 0.0613166 -8.52012e-20)
(1.03762 0.0663105 -1.24733e-19)
(1.0217 0.0445475 2.0721e-19)
(1.02377 0.0481535 2.07361e-19)
(1.02958 0.0525964 1.2421e-19)
(1.01237 0.0320451 -1.5935e-19)
(1.01567 0.0358487 4.36863e-20)
(1.01981 0.0397546 -1.16055e-19)
(1.00333 0.0211915 -2.17223e-19)
(1.00308 0.027761 -1.61344e-19)
(1.00537 0.0316759 6.57056e-20)
(0.990097 0.024533 1.7693e-20)
(0.990358 0.029051 -3.25758e-20)
(0.423865 0.661289 -2.24326e-19)
(0.251338 0.655009 6.091e-20)
(0.635673 0.610329 7.8273e-20)
(0.534368 0.608869 -2.28855e-19)
(0.762144 0.536717 1.70673e-20)
(0.686667 0.550304 7.99473e-20)
(0.838967 0.462488 -9.62032e-21)
(0.784232 0.476229 -1.53392e-19)
(0.889402 0.397057 -1.17829e-19)
(0.847313 0.409062 -8.37608e-20)
(0.924918 0.342426 -8.38748e-20)
(0.891259 0.351796 1.3956e-19)
(0.951663 0.298061 2.05724e-19)
(0.923765 0.304986 2.28373e-19)
(0.972846 0.262243 -7.86591e-20)
(0.949167 0.267319 -1.40588e-21)
(0.990016 0.232914 -1.8051e-19)
(0.969679 0.236752 1.40463e-21)
(1.00391 0.208247 -7.11497e-20)
(0.986374 0.211355 -8.33652e-20)
(1.01494 0.186852 -1.42464e-19)
(0.999847 0.189553 4.60533e-21)
(1.02343 0.167802 -7.26295e-20)
(1.01051 0.170273 1.38958e-19)
(1.02965 0.150493 -1.74943e-19)
(1.01869 0.152872 -7.12682e-20)
(1.03382 0.134501 -6.48239e-20)
(1.02465 0.136891 -1.73261e-19)
(1.03613 0.119503 1.64864e-19)
(1.02862 0.121986 1.1084e-19)
(1.03669 0.105244 3.14757e-21)
(1.03076 0.107884 5.59332e-20)
(1.03562 0.0915279 -1.00483e-19)
(1.03119 0.0943689 4.89893e-23)
(1.03301 0.0782172 -4.95952e-20)
(1.03003 0.0812915 5.15729e-20)
(1.02897 0.0652424 0)
(1.02738 0.0685525 0)
(1.02361 0.0525905 4.24797e-20)
(1.02348 0.0560255 -1.88571e-19)
(1.01704 0.040284 4.48224e-20)
(1.0186 0.0435977 4.27789e-20)
(1.00942 0.0284207 4.28838e-20)
(1.0121 0.0320006 9.11803e-20)
(1.00204 0.0182568 -5.27442e-20)
(1.00133 0.0240494 -1.33246e-19)
(0.9903 0.0204053 6.64106e-20)
(0.383078 0.583892 3.05339e-20)
(0.243402 0.556996 2.47959e-19)
(0.580552 0.551052 -2.33648e-19)
(0.487109 0.54047 -2.46874e-19)
(0.708514 0.489195 -7.85744e-20)
(0.636404 0.493871 0)
(0.791499 0.423444 -2.2956e-19)
(0.737603 0.430483 -8.00632e-20)
(0.848278 0.364468 1.70795e-19)
(0.806178 0.371209 -7.61088e-20)
(0.889332 0.314992 4.51425e-19)
(0.855432 0.320155 2.64798e-19)
(0.920656 0.27476 2.27872e-20)
(0.8925 0.278294 1.21076e-21)
(0.945549 0.242212 7.78605e-20)
(0.921655 0.244519 6.75247e-21)
(0.965734 0.215457 9.96469e-20)
(0.945225 0.216997 1.82282e-19)
(0.982124 0.192834 -8.55248e-21)
(0.964453 0.193999 -8.50275e-20)
(0.995293 0.173104 2.84874e-19)
(0.980079 0.174127 5.40853e-22)
(1.00567 0.15546 1.42663e-19)
(0.992638 0.156466 2.07971e-19)
(1.01361 0.139374 -6.85473e-20)
(1.00253 0.140466 -6.79507e-20)
(1.01939 0.124467 0)
(1.01007 0.125726 0)
(1.02322 0.110447 2.24619e-21)
(1.01554 0.111937 1.19485e-19)
(1.02525 0.0970789 5.32511e-20)
(1.01912 0.0988498 -2.82199e-19)
(1.02562 0.0841839 1.51917e-19)
(1.02096 0.0862688 1.6116e-19)
(1.02444 0.0716485 1.01618e-19)
(1.02118 0.0740642 1.0287e-19)
(1.02186 0.0594297 -1.87313e-19)
(1.01993 0.0621653 0)
(1.01799 0.0475392 -1.8504e-19)
(1.01746 0.0504901 5.82191e-20)
(1.01297 0.0360126 9.51823e-20)
(1.01403 0.0389727 -1.91341e-19)
(1.00695 0.0249495 -8.3741e-20)
(1.00903 0.0282388 8.75233e-20)
(1.00107 0.0155793 -1.12797e-19)
(1.00006 0.0205682 -1.74549e-19)
(0.990875 0.016687 1.61241e-19)
(0.356895 0.506377 -2.03577e-20)
(0.242258 0.473227 0)
(0.539141 0.485557 -2.12946e-20)
(0.454519 0.469056 4.81842e-19)
(0.665135 0.435193 0)
(0.597557 0.432811 0)
(0.751335 0.378943 7.29218e-20)
(0.699387 0.380085 0)
(0.812532 0.327521 1.24722e-20)
(0.771293 0.329375 7.41619e-20)
(0.857862 0.284039 -1.82649e-19)
(0.824381 0.285202 -2.14122e-19)
(0.8929 0.24852 -1.53141e-20)
(0.864988 0.248789 -5.09484e-20)
(0.920891 0.219644 1.08673e-19)
(0.897173 0.219261 4.94169e-20)
(0.943651 0.195767 3.94142e-22)
(0.923281 0.195052 -1.97766e-19)
(0.962225 0.175441 -7.69927e-20)
(0.944663 0.174681 -2.37723e-23)
(0.977296 0.157604 -7.85678e-20)
(0.962166 0.156951 -7.78042e-20)
(0.989387 0.141577 0)
(0.976403 0.141111 -7.50813e-20)
(0.998905 0.126912 0)
(0.98783 0.126702 7.11061e-20)
(1.00617 0.113278 1.18489e-19)
(0.996821 0.113382 0)
(1.0114 0.100411 -1.61782e-19)
(1.00366 0.100879 1.19485e-19)
(1.01481 0.0881022 -1.77828e-19)
(1.00856 0.0889709 -1.666e-19)
(1.01653 0.0761953 1.12449e-19)
(1.0117 0.0774842 -4.19223e-21)
(1.01671 0.0646035 1.87881e-21)
(1.01323 0.0663147 -5.1848e-20)
(1.0155 0.0533124 2.45144e-19)
(1.01329 0.0554222 0)
(1.01303 0.0423545 5.39851e-20)
(1.01214 0.0447673 1.96544e-19)
(1.00945 0.0317694 -1.94127e-19)
(1.01004 0.0343192 -1.91366e-19)
(1.0049 0.0216455 -1.59863e-21)
(1.00643 0.0245843 4.5769e-20)
(1.00038 0.0131501 0)
(0.999178 0.0173361 -4.71176e-20)
(0.991726 0.0133859 1.55623e-19)
(0.343416 0.431444 4.87482e-19)
(0.244715 0.396895 0)
(0.509281 0.418388 5.09915e-19)
(0.432704 0.398558 2.42625e-19)
(0.631103 0.378082 0)
(0.568348 0.370198 -2.30826e-19)
(0.718382 0.331212 0)
(0.668972 0.327293 -2.02224e-19)
(0.782358 0.287643 -1.48214e-19)
(0.742571 0.285103 -1.7782e-19)
(0.830774 0.250487 -8.46928e-20)
(0.798215 0.247966 7.38458e-20)
(0.868666 0.219952 1.2803e-20)
(0.84141 0.217168 -1.31147e-19)
(0.899129 0.194969 -2.54658e-19)
(0.875925 0.192034 1.72791e-19)
(0.924008 0.174162 -2.00529e-19)
(0.904052 0.171283 -3.04956e-19)
(0.944426 0.156318 -2.40203e-23)
(0.927202 0.153689 -9.53415e-20)
(0.961143 0.140559 -7.43443e-20)
(0.946289 0.138262 1.26016e-22)
(0.974738 0.126329 -5.3911e-21)
(0.961969 0.124406 -1.54304e-19)
(0.985661 0.113255 7.17304e-20)
(0.974741 0.111748 -2.38598e-21)
(0.994254 0.101056 0)
(0.985005 0.100003 -2.03716e-19)
(1.00078 0.0895012 1.17017e-19)
(0.993068 0.0889354 1.29285e-19)
(1.00544 0.0784069 5.82099e-21)
(0.999167 0.0783527 1.17954e-19)
(1.0084 0.0676444 -1.68225e-19)
(1.00349 0.0681084 -1.13993e-19)
(1.00983 0.0571562 -5.41694e-20)
(1.0062 0.0581255 -1.11031e-19)
(1.00989 0.0469549 -4.99936e-20)
(1.00746 0.048395 -5.53166e-20)
(1.00872 0.0370868 -5.06521e-20)
(1.00752 0.0389131 -5.03294e-20)
(1.00645 0.0275849 4.71765e-20)
(1.00662 0.0296719 5.17696e-20)
(1.00322 0.0185153 9.15253e-22)
(1.00425 0.0210549 1.97179e-19)
(0.999882 0.0109541 1.0734e-19)
(0.998614 0.0143737 -1.89876e-19)
(0.992748 0.0104914 -5.02348e-20)
(0.335979 0.360729 -2.48961e-19)
(0.249758 0.326254 -3.15797e-19)
(0.488275 0.35188 -4.8641e-19)
(0.41862 0.329934 -2.55075e-19)
(0.605167 0.319947 -4.33582e-19)
(0.547052 0.307766 -5.71858e-20)
(0.692135 0.281847 -3.80452e-19)
(0.645519 0.273638 5.26182e-20)
(0.757621 0.245968 4.04826e-20)
(0.719657 0.239549 -5.90659e-22)
(0.808103 0.215132 2.98762e-20)
(0.776829 0.209285 -1.28856e-20)
(0.848067 0.189626 2.52504e-20)
(0.821789 0.18404 -6.19059e-20)
(0.880416 0.168611 1.28028e-19)
(0.858001 0.163302 4.64422e-20)
(0.906968 0.150977 -2.01957e-19)
(0.887664 0.146057 -2.1492e-19)
(0.928889 0.135741 -9.62343e-20)
(0.912207 0.131325 -7.44877e-22)
(0.946981 0.122197 -7.83182e-20)
(0.932579 0.118314 -2.16288e-21)
(0.961858 0.109907 -1.52768e-19)
(0.949458 0.106566 -8.12638e-20)
(0.973996 0.0985681 -2.76065e-19)
(0.963366 0.0957882 7.50035e-20)
(0.983756 0.087944 -7.73074e-20)
(0.97472 0.085745 -1.34978e-19)
(0.991416 0.0778393 1.30312e-19)
(0.983843 0.0762413 1.29285e-19)
(0.997195 0.0680991 0)
(0.990985 0.0671137 0)
(1.00128 0.0586242 -5.68202e-20)
(0.996349 0.0582446 -6.09418e-20)
(1.00384 0.0493862 -1.12565e-19)
(1.00011 0.0495862 -1.74603e-19)
(1.00503 0.0404203 -5.56856e-20)
(1.00243 0.0411562 1.12886e-19)
(1.00502 0.0317779 5.14376e-20)
(1.00357 0.0329775 1.08464e-19)
(1.00392 0.023478 2.00874e-19)
(1.00372 0.025057 -2.10428e-19)
(1.00186 0.0155582 2.51646e-20)
(1.00245 0.0176732 3.01903e-19)
(0.999504 0.00897466 -3.48155e-19)
(0.998318 0.0117343 5.3571e-20)
(0.993788 0.00793565 -4.63632e-19)
(0.332873 0.293397 -3.23368e-19)
(0.256315 0.25988 -1.60757e-19)
(0.47412 0.286935 1.69208e-19)
(0.410337 0.263578 2.06239e-19)
(0.586109 0.262026 4.25224e-19)
(0.532266 0.246434 2.32365e-19)
(0.671949 0.231938 4.32769e-19)
(0.62818 0.220091 4.12638e-19)
(0.738017 0.203352 -5.39469e-20)
(0.702087 0.193533 1.29402e-19)
(0.789742 0.178622 -1.03955e-19)
(0.760003 0.169807 -1.56529e-19)
(0.83111 0.158043 -4.23999e-20)
(0.80605 0.149916 2.10638e-19)
(0.864817 0.140972 -2.93677e-19)
(0.843413 0.13348 -6.27098e-20)
(0.89263 0.126543 -1.60174e-20)
(0.874176 0.119721 -5.41005e-20)
(0.915722 0.113987 9.33307e-20)
(0.89976 0.107885 9.50699e-20)
(0.934918 0.102758 -4.18871e-21)
(0.921129 0.0973618 4.07829e-20)
(0.950847 0.0925173 1.45196e-19)
(0.938958 0.0878136 7.87942e-20)
(0.963997 0.0830266 2.18064e-19)
(0.953784 0.0790133 1.10461e-19)
(0.974741 0.074094 6.93755e-20)
(0.966034 0.0707757 -3.04291e-21)
(0.98337 0.0655583 0)
(0.976038 0.0629421 -1.00932e-19)
(0.990114 0.0572952 -6.04798e-20)
(0.984057 0.0553806 3.22672e-20)
(0.995167 0.0492353 -1.7783e-19)
(0.990304 0.0480036 3.1265e-20)
(0.998709 0.0413768 4.88613e-20)
(0.994957 0.0407897 -1.77154e-19)
(1.00091 0.0337704 2.77139e-19)
(0.998198 0.0337769 1.68902e-19)
(1.00191 0.026467 -1.5278e-19)
(1.00025 0.0270028 3.02838e-19)
(1.00185 0.0194755 -1.11148e-19)
(1.0013 0.0204791 -3.96966e-19)
(1.00083 0.0128246 3.4832e-19)
(1.00098 0.0143971 2.56794e-19)
(0.999293 0.00717691 -1.43317e-20)
(0.998234 0.00937058 9.57439e-20)
(0.994864 0.00576452 -3.03222e-19)
(0.333118 0.22895 3.58799e-19)
(0.263781 0.197045 3.5446e-19)
(0.465407 0.223936 2.67897e-19)
(0.40654 0.199626 6.69626e-20)
(0.572883 0.205024 2.15923e-19)
(0.522883 0.18665 -6.22589e-20)
(0.657171 0.182195 1.14041e-19)
(0.616184 0.167228 1.60011e-19)
(0.723178 0.160406 3.10793e-20)
(0.689385 0.147607 -9.67671e-20)
(0.77551 0.141467 1.53603e-19)
(0.747467 0.130013 -4.16714e-20)
(0.817729 0.125628 1.93565e-19)
(0.794066 0.115214 2.1796e-19)
(0.852339 0.112413 1.7682e-19)
(0.83212 0.102931 1.84725e-19)
(0.881038 0.101173 5.53163e-20)
(0.863602 0.0925965 5.42337e-20)
(0.904992 0.0913312 4.31378e-20)
(0.889903 0.0836543 8.79042e-22)
(0.925025 0.0824796 1.23493e-19)
(0.911992 0.0756572 1.33586e-19)
(0.941773 0.0743671 4.37675e-20)
(0.930527 0.0683675 4.05422e-20)
(0.955725 0.0668124 -1.09647e-19)
(0.946052 0.0616165 1.1681e-19)
(0.967263 0.0596648 -1.72534e-19)
(0.958995 0.0552632 -7.18446e-20)
(0.976682 0.0527975 -6.97982e-20)
(0.969693 0.0491854 3.56521e-20)
(0.984221 0.0461171 1.24073e-19)
(0.978413 0.0432828 -3.40691e-20)
(0.990081 0.0395821 3.35625e-20)
(0.985373 0.0374963 6.10695e-20)
(0.994442 0.0332108 -5.96898e-20)
(0.990755 0.0318265 -1.80799e-19)
(0.997476 0.0270599 1.93905e-19)
(0.994739 0.0263216 1.27329e-21)
(0.999333 0.0211719 6.07574e-20)
(0.997537 0.0210224 3.35843e-19)
(1.00014 0.0155468 -3.17043e-20)
(0.99931 0.015937 1.64899e-21)
(1.00002 0.010213 1.0714e-20)
(0.999804 0.0111854 -1.07366e-19)
(0.999223 0.00554787 -1.45851e-19)
(0.998286 0.00716894 2.17924e-21)
(0.995998 0.00396745 -6.82764e-20)
(0.335848 0.16714 6.93809e-20)
(0.271749 0.13709 3.60978e-19)
(0.461089 0.162998 -2.60837e-19)
(0.406261 0.137977 -1.73375e-19)
(0.564631 0.149295 -1.21859e-19)
(0.518028 0.128563 -2.14301e-19)
(0.647213 0.133047 -4.6291e-20)
(0.608883 0.115353 -5.33759e-20)
(0.712735 0.117554 -1.70464e-19)
(0.681114 0.10212 -3.39468e-21)
(0.765196 0.104057 1.98734e-20)
(0.738954 0.0902519 -1.62795e-19)
(0.807823 0.0927365 2.09548e-19)
(0.785687 0.0802657 1.10952e-19)
(0.842949 0.0832576 6.36947e-20)
(0.824053 0.0719676 2.83604e-22)
(0.872203 0.0751598 3.54922e-22)
(0.855921 0.0649746 -5.59695e-20)
(0.896728 0.0680337 8.98751e-20)
(0.882649 0.0588982 5.05935e-20)
(0.917345 0.0615934 5.15636e-20)
(0.905193 0.0534394 9.05527e-20)
(0.93468 0.0556612 1.12833e-19)
(0.924197 0.0484416 -8.19048e-20)
(0.949224 0.0501054 1.56339e-19)
(0.940202 0.0437864 1.16261e-19)
(0.961358 0.0448142 1.35463e-19)
(0.953636 0.0393735 0)
(0.971383 0.0396944 7.19814e-20)
(0.964837 0.0351155 -1.72339e-21)
(0.979539 0.0346825 -9.77945e-20)
(0.974076 0.0309438 3.34102e-20)
(0.98603 0.02976 -1.51559e-19)
(0.981572 0.0268247 3.32278e-22)
(0.991038 0.0249571 -1.21257e-19)
(0.987508 0.022773 -2.44096e-19)
(0.994733 0.0203262 1.41371e-19)
(0.992061 0.0188373 6.02111e-20)
(0.997268 0.0158981 2.77853e-19)
(0.995427 0.015052 1.7024e-19)
(0.998776 0.011667 -7.38962e-20)
(0.997759 0.0114167 1.64094e-19)
(0.999385 0.00766363 -1.1518e-19)
(0.998908 0.00799372 -1.04695e-19)
(0.999255 0.00405269 8.01593e-20)
(0.99842 0.00503995 -1.05364e-21)
(0.997138 0.00256196 5.20255e-24)
(0.340421 0.107624 1.31032e-19)
(0.279951 0.0793755 1.95722e-20)
(0.460379 0.104028 -1.25583e-19)
(0.408806 0.078361 -5.2718e-20)
(0.560673 0.0949547 -1.4867e-19)
(0.517044 0.0721193 3.20474e-20)
(0.641575 0.0847247 -1.13048e-20)
(0.605757 0.0645823 -5.51998e-20)
(0.706356 0.0750746 6.49382e-21)
(0.676907 0.0572787 4.56257e-20)
(0.758598 0.0666848 -7.4863e-20)
(0.734225 0.0507736 1.96958e-22)
(0.801277 0.0596601 -9.68515e-20)
(0.78077 0.0453391 -7.1835e-20)
(0.836593 0.0537875 -1.18699e-19)
(0.81913 0.0408606 -6.26494e-20)
(0.866107 0.0487683 -6.91667e-21)
(0.851096 0.0371161 -5.51034e-20)
(0.890938 0.044339 5.07586e-20)
(0.877987 0.0338633 2.00132e-21)
(0.911893 0.0403208 -4.12326e-20)
(0.900739 0.0309353 9.16641e-20)
(0.929591 0.0365973 -8.03966e-20)
(0.919981 0.028241 -1.05472e-19)
(0.944516 0.0330801 -3.90682e-20)
(0.93625 0.0257055 -3.87282e-20)
(0.957049 0.0296943 -1.37185e-19)
(0.949972 0.0232664 0)
(0.967491 0.0263792 -4.05801e-20)
(0.961484 0.0208703 -1.03491e-19)
(0.976083 0.0230986 1.31802e-19)
(0.971057 0.0184786 9.97409e-20)
(0.983028 0.0198511 -9.0384e-20)
(0.978909 0.0160789 6.36058e-20)
(0.988508 0.0166689 -6.48184e-20)
(0.985224 0.0136926 -1.07553e-19)
(0.99269 0.0135932 8.85252e-20)
(0.990171 0.0113598 5.95638e-20)
(0.995729 0.01064 5.65202e-20)
(0.993933 0.00910434 -1.44848e-20)
(0.997756 0.007798 1.34383e-19)
(0.996659 0.00692021 -5.57116e-20)
(0.998898 0.00509456 7.4029e-21)
(0.998295 0.00483432 1.61045e-19)
(0.999304 0.0026621 -8.12597e-20)
(0.9986 0.00299617 -5.1534e-20)
(0.998162 0.00145512 -1.16449e-19)
(0.346407 0.0499702 -1.61821e-19)
(0.288222 0.0233092 -1.41049e-19)
(0.462719 0.0467904 1.03397e-19)
(0.413719 0.0204105 -1.82862e-20)
(0.560501 0.0419615 1.26996e-19)
(0.519465 0.0171377 6.20921e-20)
(0.639868 0.0373234 0)
(0.606424 0.0149097 0)
(0.703769 0.0331458 4.00191e-20)
(0.676479 0.0131919 -4.80181e-20)
(0.755536 0.029576 4.21708e-21)
(0.733087 0.0117575 4.06365e-20)
(0.797981 0.0266452 -3.77508e-20)
(0.779189 0.0106547 -3.72721e-20)
(0.833206 0.0242516 8.49104e-22)
(0.817275 0.00984643 3.09163e-20)
(0.86272 0.02224 -4.69022e-20)
(0.849082 0.00925661 -5.5714e-20)
(0.887611 0.0204763 4.18797e-20)
(0.875892 0.00877973 -4.82318e-20)
(0.908671 0.0188727 2.9408e-20)
(0.898615 0.0083609 6.88013e-20)
(0.926511 0.0173652 -6.44222e-20)
(0.917873 0.00796252 -4.27745e-20)
(0.941609 0.0159046 0)
(0.934195 0.00754996 0)
(0.954343 0.0144509 3.45638e-20)
(0.948003 0.00709642 1.84632e-20)
(0.965013 0.0129747 3.51313e-20)
(0.959632 0.00658191 1.73147e-20)
(0.973857 0.0114634 3.18286e-20)
(0.969352 0.00599572 0)
(0.981079 0.00992681 4.77364e-20)
(0.977379 0.00534219 3.20718e-20)
(0.986855 0.0083924 1.56528e-20)
(0.983893 0.00464233 3.10618e-20)
(0.991354 0.00688749 -4.29626e-20)
(0.98906 0.00392338 -1.51343e-20)
(0.994726 0.0054188 -1.26477e-19)
(0.99305 0.00319893 -1.42893e-20)
(0.997103 0.0039766 -3.0287e-20)
(0.996011 0.00246105 -1.25377e-19)
(0.99861 0.00258794 1.06127e-19)
(0.997963 0.00171766 1.0771e-19)
(0.99937 0.00135753 -8.39435e-20)
(0.998802 0.00107083 6.51846e-20)
(0.998977 0.000576837 -1.3964e-19)
(0.353544 -0.00629445 0)
(0.296462 -0.0316863 -2.00191e-20)
(0.467746 -0.00903777 -6.12748e-20)
(0.420734 -0.0363024 -8.66843e-21)
(0.563771 -0.00982329 -6.37493e-20)
(0.525005 -0.0366391 1.56902e-20)
(0.641815 -0.00914662 -4.72151e-20)
(0.610636 -0.0337422 -2.07153e-20)
(0.70477 -0.00812008 -4.87476e-20)
(0.679638 -0.0300897 -3.2013e-23)
(0.75587 -0.00709277 0)
(0.735398 -0.0266593 1.03498e-20)
(0.797843 -0.00609649 3.05191e-20)
(0.780847 -0.0235982 -2.65326e-20)
(0.832731 -0.00512649 -2.46483e-20)
(0.818424 -0.0208607 5.48947e-20)
(0.862004 -0.00420095 -5.72029e-20)
(0.849834 -0.0183823 -2.8709e-20)
(0.886721 -0.0033378 -2.26244e-20)
(0.876331 -0.0161335 0)
(0.907661 -0.00254881 -2.2389e-21)
(0.898798 -0.0140771 -1.12864e-20)
(0.925427 -0.00185161 2.12502e-20)
(0.917852 -0.0122036 2.13244e-20)
(0.940493 -0.00125826 1.83011e-20)
(0.934019 -0.0105092 9.9051e-21)
(0.95323 -0.000774796 1.22366e-21)
(0.947712 -0.00898572 1.16497e-23)
(0.963936 -0.000400899 -1.76791e-20)
(0.959265 -0.00762057 -1.41993e-24)
(0.972848 -0.000128788 0)
(0.968943 -0.00639866 4.18558e-21)
(0.980163 5.67618e-05 1.54016e-20)
(0.97696 -0.00530329 0)
(0.98606 0.000174515 5.8887e-22)
(0.983492 -0.0043187 -1.3997e-23)
(0.990703 0.000238925 1.35379e-20)
(0.988702 -0.0034334 -3.00827e-20)
(0.994243 0.000253408 -1.24723e-20)
(0.992752 -0.00264138 7.09206e-23)
(0.996805 0.000215328 1.13789e-20)
(0.995788 -0.00194014 -2.78745e-20)
(0.998499 0.000146464 6.70214e-20)
(0.997883 -0.00131978 5.71461e-20)
(0.999452 0.000121825 1.30731e-20)
(0.999033 -0.000747275 -6.58793e-23)
(0.99955 -0.000154179 -2.91517e-21)
(0.361704 -0.0616709 -2.89596e-20)
(0.304622 -0.0862016 7.17176e-23)
(0.475267 -0.0638278 6.7878e-20)
(0.429753 -0.09224 -9.20722e-21)
(0.570287 -0.0605917 5.93886e-20)
(0.533537 -0.0895059 7.87586e-20)
(0.647249 -0.0547215 2.61078e-20)
(0.61827 -0.0814853 -7.04473e-21)
(0.709227 -0.0486466 5.88931e-20)
(0.686278 -0.0725418 4.79718e-20)
(0.759504 -0.0431714 -1.56694e-20)
(0.741076 -0.0643588 1.04014e-23)
(0.800795 -0.0383724 -3.13288e-21)
(0.785677 -0.0572445 -1.8665e-20)
(0.835117 -0.0341339 5.17905e-20)
(0.822525 -0.0510555 1.71615e-20)
(0.863918 -0.0303379 2.81684e-20)
(0.853309 -0.0455835 2.78584e-20)
(0.888234 -0.0268943 1.14517e-20)
(0.879264 -0.0406637 0)
(0.908835 -0.0237487 1.19415e-20)
(0.901253 -0.0361778 1.0876e-20)
(0.926316 -0.0208752 1.00776e-20)
(0.91989 -0.0320721 9.29765e-22)
(0.941145 -0.0182495 -8.29531e-21)
(0.935694 -0.0283046 9.9051e-21)
(0.953689 -0.015844 -1.21285e-21)
(0.949074 -0.024832 -1.73131e-20)