/*--------------------------------*- C++ -*----------------------------------*\
  =========                 |
  \\      /  F ield         | OpenFOAM: The Open Source CFD Toolbox
   \\    /   O peration     | Website:  https://openfoam.org
    \\  /    A nd           | Version:  11
     \\/     M anipulation  |
\*---------------------------------------------------------------------------*/
FoamFile
{
    format      ascii;
    class       volScalarField;
    location    "0.88";
    object      epsilon;
}
// * * * * * * * * * * * * * * * * * * * * * * * * * * * * * * * * * * * * * //

dimensions      [0 2 -3 0 0 0 0];

internalField   nonuniform List<scalar> 
2880
(
3.09123
8.73882
11.3855
12.2957
46.6491
51.4651
1.14402
4.24854
5.78792
7.04497
10.8527
17.1629
1.68392
3.28287
4.36526
5.45814
7.29812
10.1173
2.33301
2.93378
3.76412
4.70663
5.97276
7.36912
2.93635
2.78555
3.44403
4.26042
5.20746
5.98158
3.47687
2.72513
3.25138
3.96139
4.69733
5.14116
3.94501
2.70642
3.12621
3.74748
4.33215
4.5811
4.33567
2.70706
3.04037
3.5892
4.06162
4.18925
4.64635
2.71482
2.97897
3.47048
3.86033
3.91038
4.87643
2.72254
2.93364
3.38208
3.71438
3.71495
5.02741
2.72615
2.8995
3.31887
3.61564
3.58645
5.09917
2.72314
2.87373
3.27815
3.55901
3.5169
5.09058
2.71155
2.85474
3.25839
3.54158
3.50202
4.99955
2.69042
2.84176
3.25893
3.56287
3.54144
4.82731
2.65932
2.83481
3.27942
3.62455
3.64072
4.57434
2.61888
2.83495
3.32122
3.73157
3.8085
4.24138
2.57145
2.84455
3.38785
3.88856
4.06139
3.83009
2.52149
2.86884
3.48479
4.10535
4.42852
3.34413
2.47737
2.91869
3.62211
4.40074
4.96206
2.79116
2.45509
3.01588
3.82094
4.80808
5.76842
2.18585
2.48746
3.20929
4.13018
5.39726
7.10863
1.5538
2.66774
3.62231
4.68646
6.39861
9.77128
1.07451
3.34099
4.71012
5.97816
8.94681
16.6378
2.62729
7.13972
9.50039
10.7951
10.6876
50.8213
17.663
6.56369
2.75752
1.18154
0.495326
0.210685
0.0949054
0.0463482
0.0245242
0.0139243
0.0083936
0.00528813
0.00346311
0.0023567
0.00166978
0.00123472
0.000954245
0.000770348
0.000647537
0.000563337
0.000503119
0.000458425
0.000425513
0.000401842
10.9677
5.33185
2.41534
1.04779
0.439375
0.187054
0.0846413
0.0415721
0.0220864
0.0125614
0.00755475
0.00473626
0.00308296
0.00208604
0.00147225
0.00108788
0.000843691
0.000686602
0.000584217
0.000516081
0.000468944
0.000435085
0.000410867
0.00039413
8.03733
4.42403
2.09951
0.921119
0.387966
0.166115
0.0757824
0.0375126
0.0200319
0.0114199
0.00685507
0.00427846
0.00276991
0.00186513
0.00131264
0.000970484
0.00075631
0.000621206
0.00053538
0.000480066
0.000443189
0.00041769
0.000400052
0.000388333
6.37673
3.74679
1.82785
0.808532
0.342758
0.148055
0.0682524
0.0340907
0.0183089
0.0104672
0.00627372
0.00390048
0.00251355
0.00168592
0.00118449
0.000877286
0.000687775
0.000570575
0.000498058
0.000452856
0.000423904
0.000404772
0.000392156
0.000384042
5.29802
3.22788
1.60063
0.712434
0.304321
0.13284
0.0619482
0.0312353
0.0168749
0.0096775
0.00579426
0.00359097
0.00230547
0.00154191
0.00108259
0.000804022
0.000634578
0.000531816
0.000469881
0.000432553
0.000409628
0.000395246
0.00038637
0.000380858
4.5548
2.82785
1.4145
0.632782
0.272481
0.120274
0.0567482
0.0288813
0.0156949
0.00903012
0.00540361
0.00334091
0.00213901
0.0014279
0.00100282
0.000747348
0.000593976
0.000502673
0.000449016
0.000417722
0.000399302
0.000388371
0.000382144
0.000378527
4.02189
2.51887
1.26484
0.568282
0.246674
0.110086
0.052527
0.0269704
0.0147403
0.00850864
0.00509137
0.00314313
0.0020089
0.00133988
0.00094201
0.000704734
0.000563906
0.000481443
0.000434063
0.000407247
0.000392108
0.000383642
0.00037921
0.000376923
3.63326
2.28169
1.14689
0.51722
0.226209
0.101993
0.0491664
0.0254499
0.0139903
0.00809991
0.00484923
0.00299195
0.00191101
0.00127474
0.000897756
0.000674266
0.000542819
0.000466853
0.000423975
0.000400278
0.000387367
0.00038063
0.000377394
0.00037592
3.35095
2.10296
1.05635
0.477901
0.21042
0.0957346
0.0465648
0.0242773
0.0134236
0.00779296
0.00467053
0.00288289
0.00184213
0.00123005
0.000868189
0.000654471
0.000529522
0.000457929
0.000417962
0.000396187
0.000384664
0.00037896
0.000376397
0.000375362
3.15168
1.97329
0.989674
0.44885
0.198726
0.0910952
0.0446407
0.0234186
0.0130174
0.00757852
0.00455004
0.00281247
0.00179977
0.001204
0.000851907
0.00064424
0.000523121
0.000453972
0.000415492
0.000394605
0.000383693
0.000378366
0.000376024
0.000375156
3.02119
1.88624
0.944117
0.428898
0.190669
0.0879017
0.0433279
0.0228453
0.0127577
0.00744977
0.00448385
0.00277816
0.00178223
0.00119534
0.000847978
0.000642847
0.000522977
0.000454445
0.00041621
0.000395287
0.000384151
0.000378617
0.000376112
0.00037515
2.95132
1.83778
0.917798
0.417212
0.185916
0.0860275
0.0425773
0.0225367
0.0126351
0.00740205
0.00446928
0.00277809
0.00178759
0.00120213
0.000854472
0.000648663
0.000528377
0.00045909
0.000419899
0.000398068
0.000386077
0.000379756
0.000376663
0.00037528
2.93856
1.82599
0.909684
0.413299
0.184259
0.0853916
0.0423566
0.022479
0.0126424
0.00742931
0.00450085
0.00280764
0.00181289
0.00122302
0.000872076
0.000663377
0.000539945
0.000467965
0.000426569
0.000402935
0.000389469
0.000381863
0.0003777
0.000375549
2.98278
1.851
0.919604
0.417003
0.185596
0.0859392
0.0426362
0.0226545
0.0127688
0.00752656
0.00457733
0.00286769
0.00186054
0.00126118
0.000902069
0.00068638
0.000557475
0.000481154
0.00043632
0.000409964
0.00039431
0.00038491
0.000379303
0.000376047
3.0899
1.91514
0.948276
0.428521
0.189985
0.0876891
0.0434255
0.0230684
0.013018
0.00769645
0.00470133
0.00296167
0.0019325
0.00131612
0.000943746
0.000717998
0.000581339
0.000498982
0.000449442
0.000419408
0.000400824
0.000389039
0.000381525
0.000376791
3.2692
2.02312
0.997373
0.44838
0.197549
0.0906601
0.0447236
0.0237224
0.0133939
0.00794302
0.00487544
0.00308934
0.00202775
0.00138762
0.000997736
0.000758821
0.00061209
0.00052194
0.000466354
0.00043161
0.000409282
0.000394458
0.000384517
0.000377874
3.53736
2.18261
1.06962
0.477465
0.208535
0.0949134
0.0465422
0.0246137
0.0138904
0.00826121
0.00509663
0.00324956
0.00214632
0.00147651
0.00106486
0.000809643
0.00065046
0.00055068
0.000487613
0.000447026
0.000420045
0.000401445
0.000388484
0.000379417
3.92131
2.40514
1.16896
0.517007
0.223277
0.100529
0.0488985
0.0257451
0.0145074
0.0086501
0.005364
0.00344235
0.00228899
0.00158371
0.00114611
0.000871423
0.000697346
0.000586009
0.000513917
0.000466233
0.000433572
0.000410349
0.000393677
0.000381562
4.46538
2.70766
1.30074
0.568549
0.242159
0.107593
0.0518078
0.0271178
0.0152436
0.00910855
0.00567724
0.003668
0.00245645
0.00171015
0.00124251
0.000945227
0.00075378
0.000628882
0.000546107
0.00048994
0.000450425
0.000421596
0.000400391
0.000384467
5.24694
3.11518
1.47226
0.633794
0.265545
0.116168
0.0552732
0.0287276
0.016097
0.00963448
0.00603521
0.00392629
0.00264909
0.00185659
0.00135506
0.00103215
0.000820874
0.000680365
0.000585156
0.000518984
0.000471285
0.000435692
0.000408966
0.000388309
6.40529
3.66677
1.6906
0.714083
0.293609
0.126242
0.0592688
0.030556
0.0170682
0.0102245
0.00643579
0.00421629
0.00286683
0.00202353
0.00148458
0.0011332
0.000899727
0.000741567
0.000632119
0.000554311
0.000496945
0.000453256
0.000419814
0.000393306
8.21461
4.41738
1.96084
0.809339
0.326026
0.137657
0.0637283
0.0325769
0.018138
0.0108717
0.00687549
0.00453628
0.00310902
0.00221103
0.00163161
0.00124924
0.000991377
0.000813616
0.000688144
0.000597032
0.000528407
0.000475044
0.000433202
0.000399563
11.4591
5.4572
2.2813
0.916048
0.36147
0.149993
0.0685149
0.0347399
0.019284
0.0115666
0.00734959
0.00488379
0.00337454
0.00241882
0.00179649
0.00138098
0.00109681
0.000897657
0.000754434
0.000648293
0.000566638
0.000501756
0.000449669
0.000407243
19.101
6.95188
2.63149
1.02459
0.397125
0.162487
0.0734105
0.0369736
0.0204786
0.0122978
0.0078526
0.00525592
0.00366191
0.00264637
0.00197932
0.00152904
0.00121697
0.00099484
0.000832233
0.000709327
0.000612753
0.000534305
0.000469875
0.000416602
3.49706
2.61157
2.03005
1.84413
2.35747
6.01739
1.17281
1.4153
1.30822
1.40882
2.63402
7.35442
1.56373
1.44667
1.39599
1.6747
3.58508
9.00613
1.96994
1.63003
1.60798
2.10099
4.56869
9.66912
2.29938
1.79652
1.83077
2.56732
5.38054
9.66347
2.57813
1.93346
2.04946
3.02024
5.93315
9.39183
2.82111
2.04949
2.26407
3.43056
6.2469
8.87566
3.03365
2.15097
2.47368
3.78091
6.36316
8.29881
3.21714
2.24039
2.67448
4.05891
6.35063
7.72913
3.37175
2.31997
2.8609
4.26398
6.24044
7.19951
3.49781
2.39213
3.02665
4.40446
6.07536
6.72552
3.59636
2.46043
3.16543
4.49132
5.88797
6.31382
3.66494
2.52637
3.27592
4.5375
5.70178
5.96691
3.67513
2.58331
3.36262
4.55647
5.53346
5.6819
3.6398
2.63238
3.43211
4.56157
5.39584
5.45786
3.54117
2.67901
3.49309
4.5669
5.29983
5.30208
3.38168
2.7325
3.55644
4.58643
5.25486
5.22389
3.15659
2.80623
3.63619
4.63258
5.26753
5.23046
2.86128
2.9206
3.75237
4.72264
5.33727
5.31723
2.49067
3.10764
3.9379
4.88097
5.49886
5.53365
2.04002
3.40359
4.25809
5.14782
5.79214
5.93665
1.50514
3.90088
4.87717
5.63362
6.28477
6.7604
1.04525
5.06459
6.36721
6.7863
7.15115
9.09226
3.46539
8.53117
11.9624
11.5302
9.47658
26.6023
16.9652
7.48302
2.86858
1.11197
0.428388
0.174094
0.0781469
0.0391976
0.0216933
0.0130542
0.00837909
0.00564973
0.00396957
0.00289303
0.00218013
0.0016939
0.0013527
0.00110627
0.000922799
0.000781443
0.000668019
0.000573814
0.000494677
0.000427984
14.2062
7.18716
2.93058
1.16281
0.451697
0.183946
0.0825001
0.0413465
0.0229059
0.0138271
0.00892486
0.0060629
0.00429623
0.0031582
0.00239886
0.00187596
0.00150477
0.00123299
0.00102739
0.000866027
0.000733858
0.000621604
0.000525114
0.000441818
12.1683
6.68259
2.87392
1.17525
0.466329
0.191811
0.0863933
0.0433966
0.0241083
0.0146131
0.00948811
0.00649427
0.00464114
0.00344153
0.00263553
0.0020756
0.00167388
0.00137599
0.00114724
0.000964529
0.000811831
0.000679195
0.000562428
0.000458646
10.6291
6.01441
2.7648
1.16415
0.474075
0.197992
0.0899002
0.0453706
0.0253092
0.0154155
0.0100702
0.00694428
0.00500443
0.00374311
0.00289037
0.00229326
0.00186071
0.00153625
0.00128361
0.00107845
0.000903634
0.000748313
0.000608087
0.00047914
9.41003
5.40926
2.629
1.14006
0.476867
0.202966
0.0931699
0.0473223
0.0265308
0.0162438
0.0106755
0.0074152
0.00538732
0.00406372
0.00316401
0.00252961
0.0020661
0.0017148
0.00143779
0.00120939
0.0010111
0.000830904
0.000663816
0.000504126
8.39829
4.87731
2.47308
1.10869
0.476817
0.20728
0.0963766
0.049321
0.0278038
0.0171122
0.0113114
0.00791106
0.00579226
0.00440502
0.00345777
0.00278585
0.00229126
0.00191297
0.00161131
0.00135908
0.00113625
0.000929179
0.000731653
0.000534602
7.54573
4.41785
2.30753
1.07451
0.475837
0.211427
0.0996915
0.0514398
0.0291634
0.0180384
0.0119876
0.00843772
0.00622311
0.00476988
0.00377403
0.00306416
0.00253831
0.00213289
0.00180635
0.00152984
0.00128158
0.00104581
0.000814106
0.000571783
6.82265
4.02706
2.15879
1.04147
0.474956
0.215821
0.103276
0.0537527
0.0306476
0.0190428
0.0127161
0.0090028
0.00668534
0.00516273
0.00411682
0.00336845
0.00281116
0.00237849
0.00202683
0.00172553
0.00145091
0.00118463
0.000914724
0.000617267
6.21011
3.69849
2.02861
1.01167
0.474849
0.220811
0.107285
0.0563372
0.0322986
0.020149
0.013511
0.0096158
0.00718615
0.00558985
0.00449225
0.00370515
0.00311679
0.00265731
0.00228065
0.00195413
0.00165201
0.0013531
0.00104024
0.000673936
5.69464
3.42519
1.91732
0.986226
0.47621
0.226722
0.111879
0.0592791
0.0341657
0.0213851
0.0143895
0.0102882
0.00773435
0.00605916
0.00490855
0.00408362
0.00346632
0.00298266
0.00258352
0.00223358
0.00190446
0.00157154
0.0012102
0.000753321
5.26578
3.20128
1.82515
0.966198
0.47981
0.234037
0.117374
0.0627326
0.0363158
0.0227867
0.0153728
0.0110337
0.00834007
0.00657943
0.00537478
0.0045147
0.00387384
0.00337359
0.00296147
0.00259936
0.00225613
0.00190288
0.00150562
0.000957087
4.91414
3.02162
1.75194
0.952616
0.486175
0.243004
0.12393
0.0668225
0.0388273
0.0244
0.0164883
0.0118696
0.00901482
0.00715926
0.00589858
0.00500684
0.00435078
0.00384764
0.00344335
0.00310105
0.00279571
0.00251794
0.00229657
0.00222773
4.63315
2.88303
1.69806
0.946128
0.49598
0.254032
0.131804
0.0717119
0.041804
0.0262879
0.0177741
0.0128196
0.00977372
0.00780846
0.00648657
0.00556508
0.00490246
0.00441302
0.00404388
0.00376306
0.0035535
0.00341591
0.00338547
0.00351295
4.42043
2.78339
1.66091
0.945472
0.509694
0.267606
0.141339
0.0776305
0.0453922
0.0285405
0.0192863
0.0139194
0.0106405
0.00854321
0.00715
0.00619739
0.00553434
0.00507233
0.0047601
0.00456977
0.00448812
0.00451381
0.00466009
0.00493083
4.2748
2.72321
1.64878
0.955074
0.528417
0.284399
0.153014
0.084902
0.0498004
0.031289
0.0211083
0.0152243
0.0116534
0.00939159
0.00791049
0.00692106
0.00626026
0.00583535
0.00559509
0.00551306
0.00557023
0.00575945
0.0060825
0.00648661
4.19451
2.7046
1.65734
0.976996
0.553689
0.305335
0.167482
0.0939793
0.0553274
0.0347247
0.0233641
0.0168177
0.0128717
0.0103977
0.00880233
0.00776333
0.00710151
0.00671736
0.00655786
0.00659139
0.00679231
0.00716133
0.00766483
0.00821977
4.18407
2.73193
1.69324
1.01419
0.587595
0.33179
0.185676
0.105508
0.062405
0.0391288
0.0262379
0.0188246
0.0143842
0.011628
0.00987707
0.00876467
0.00808926
0.00774103
0.00766381
0.00780544
0.00816829
0.00872532
0.00943031
0.0101677
4.24539
2.81372
1.76348
1.07143
0.633277
0.365789
0.208957
0.120428
0.0716672
0.04492
0.0300066
0.0214337
0.0163259
0.0131836
0.0112134
0.00998757
0.00927278
0.00894392
0.0089385
0.00917983
0.0097088
0.0104661
0.0113989
0.0123601
4.39747
2.96317
1.87888
1.15627
0.695647
0.410452
0.239386
0.140144
0.084071
0.0527378
0.0350973
0.0249374
0.0189059
0.0152217
0.0129347
0.0115324
0.0107348
0.0103955
0.0104311
0.0107618
0.0114472
0.0124096
0.0135951
0.0148284
4.65554
3.1964
2.05454
1.28034
0.782565
0.47084
0.280268
0.166885
0.10113
0.0635996
0.0421934
0.0298049
0.02246
0.0179953
0.0152414
0.0135635
0.0126141
0.0122127
0.0122542
0.0126368
0.0134493
0.014609
0.0160632
0.0176209
5.04209
3.52486
2.30565
1.45899
0.906029
0.555145
0.336992
0.204252
0.125293
0.0791736
0.0524303
0.0368217
0.0275515
0.0219288
0.0184702
0.0163606
0.0151499
0.0146031
0.0146012
0.0149737
0.0158513
0.0171764
0.0188949
0.0208282
5.59716
3.94535
2.6363
1.70533
1.08127
0.6762
0.418908
0.258681
0.160933
0.102422
0.0678251
0.0473849
0.0351818
0.0277739
0.0232153
0.0204173
0.0187684
0.0179459
0.0177969
0.0180975
0.0189323
0.020347
0.022286
0.0246344
6.38655
4.43971
3.0322
2.02006
1.31922
0.848275
0.539192
0.340601
0.215719
0.1388
0.0921895
0.0641593
0.0472557
0.0369492
0.0305876
0.0266499
0.0242599
0.0229408
0.0224613
0.0226018
0.023248
0.0245981
0.0266496
0.0294215
7.22206
4.9019
3.45454
2.39357
1.62633
1.08595
0.714976
0.466079
0.302812
0.198214
0.132699
0.0923133
0.0675449
0.0522848
0.0427974
0.0368653
0.0331714
0.0309563
0.0298257
0.0295945
0.0299373
0.0309193
0.032843
0.0359684
1.93781
2.24268
2.6624
2.70187
2.48459
2.45856
0.858332
0.955738
1.17298
1.27721
1.30082
1.42358
0.230604
0.715667
0.89886
0.987862
1.04315
1.16095
0.253579
0.668408
0.816258
0.894958
0.959678
1.06657
0.270256
0.680344
0.793316
0.864471
0.933594
1.03305
0.280306
0.727207
0.794275
0.858968
0.929956
1.02501
1.2379
0.783262
0.806582
0.86526
0.936924
1.02793
1.35635
0.82206
0.822484
0.877062
0.948486
1.03526
1.45708
0.849082
0.838199
0.891292
0.961552
1.04354
1.53714
0.867203
0.852893
0.906293
0.974822
1.05146
1.5959
0.879272
0.866706
0.921559
0.98815
1.05916
1.6346
0.887672
0.880176
0.937347
1.00221
1.06776
1.64944
0.893388
0.893897
0.954516
1.0183
1.07923
1.63921
0.896394
0.908661
0.974275
1.03827
1.09628
1.60171
0.896823
0.925435
0.99818
1.06451
1.12234
1.53791
0.894912
0.945438
1.02821
1.10006
1.16178
1.45014
0.891216
0.970297
1.067
1.14898
1.22028
1.34262
0.886522
1.00235
1.11823
1.21693
1.30575
1.22586
0.881827
1.04532
1.18761
1.31265
1.43019
0.278594
0.878651
1.10598
1.28514
1.45118
1.61397
0.262696
0.906058
1.19887
1.43126
1.66239
1.89722
0.238416
0.98427
1.36181
1.67777
2.01853
2.37548
0.879805
1.21752
1.74185
2.20971
2.74121
3.3551
1.93411
2.3206
3.35588
4.21345
4.99988
6.215
4.88431
4.57868
3.6667
2.74448
1.98236
1.39452
0.961938
0.654647
0.442381
0.299215
0.204617
0.143465
0.104631
0.0801755
0.0647666
0.0550239
0.0488376
0.0449192
0.0425441
0.0413346
0.0411379
0.0415731
0.0428502
0.0458519
2.65782
3.64115
3.49107
2.98569
2.35497
1.78435
1.30967
0.93848
0.662745
0.46516
0.329847
0.238591
0.177712
0.137415
0.110773
0.0930758
0.081253
0.073276
0.067872
0.0642895
0.062102
0.0611023
0.0613301
0.0630005
1.72022
2.65001
3.04678
2.96291
2.68271
2.25906
1.82764
1.42961
1.08411
0.809908
0.606911
0.45882
0.353207
0.278692
0.226197
0.189017
0.162409
0.143163
0.129038
0.118454
0.11044
0.104516
0.100115
0.0986734
1.38716
2.01499
2.52082
2.77706
2.76665
2.65607
2.41937
2.12976
1.82988
1.53601
1.26055
1.02201
0.834505
0.690709
0.578712
0.490517
0.420388
0.364234
0.318979
0.282146
0.251958
0.226995
0.206956
0.188624
1.25776
1.68311
2.11978
2.46787
2.68111
2.77434
2.76386
2.70449
2.58266
2.42122
2.24437
2.0592
1.86761
1.68042
1.50448
1.34136
1.19122
1.05401
0.929848
0.817741
0.717974
0.627032
0.554115
0.470262
1.20293
1.51441
1.86505
2.19943
2.48026
2.69275
2.83626
2.92983
2.97056
2.97159
2.95193
2.9086
2.83416
2.7414
2.63367
2.50969
2.37076
2.21874
2.05596
1.88535
1.71179
1.5343
1.37504
1.18291
1.17894
1.42296
1.70626
1.99802
2.27366
2.51772
2.72519
2.89666
3.03238
3.13736
3.21435
3.26061
3.27564
3.26686
3.23762
3.17979
3.09218
2.98369
2.85606
2.71212
2.55525
2.38987
2.22744
2.057
1.16756
1.36738
1.59967
1.84631
2.09155
2.32387
2.53683
2.72689
2.89204
3.03166
3.14434
3.22817
3.28209
3.30619
3.30225
3.27476
3.21675
3.13299
3.03062
2.91274
2.78376
2.65078
2.52409
2.41342
1.16069
1.3279
1.51963
1.7244
1.93165
2.1329
2.322
2.49438
2.64658
2.77588
2.87995
2.95717
3.0069
3.02934
3.02628
3.00211
2.95446
2.88927
2.81116
2.72428
2.63368
2.54525
2.46381
2.39259
1.15515
1.29582
1.45353
1.62027
1.78836
1.95114
2.10312
2.23974
2.35729
2.45292
2.52475
2.57208
2.59548
2.59631
2.57785
2.54276
2.4956
2.44014
2.37825
2.31528
2.25507
2.20023
2.15086
2.10187
1.15059
1.26845
1.39697
1.52982
1.6609
1.78468
1.89647
1.99235
2.06938
2.12573
2.16094
2.17612
2.17419
2.15716
2.12884
2.09505
2.06061
2.02992
2.00757
1.99219
1.98224
1.97526
1.96943
1.95207
1.14818
1.24686
1.35074
1.45477
1.55372
1.643
1.71894
1.77886
1.82133
1.84582
1.85486
1.85164
1.84005
1.82617
1.81705
1.81531
1.82144
1.83507
1.85481
1.87859
1.90478
1.93069
1.95494
1.98158
1.15058
1.23488
1.31979
1.40138
1.47549
1.53862
1.58839
1.62382
1.64523
1.65556
1.65935
1.6613
1.66636
1.67856
1.69839
1.72514
1.75778
1.79384
1.83055
1.86548
1.89628
1.92688
1.96088
2.03216
1.16164
1.23625
1.30974
1.37835
1.43853
1.48793
1.52566
1.55248
1.57074
1.58446
1.59822
1.61638
1.64234
1.67765
1.72192
1.77165
1.8207
1.86159
1.88713
1.8926
1.87299
1.8373
1.80959
1.85903
1.18612
1.25777
1.32771
1.39287
1.4505
1.49928
1.53955
1.57332
1.60409
1.63635
1.67448
1.72179
1.77942
1.84521
1.91325
1.97426
2.01833
2.03464
2.01183
1.93567
1.82753
1.69239
1.53991
1.50168
1.22995
1.30697
1.38348
1.45717
1.5259
1.58918
1.64823
1.7057
1.76522
1.83044
1.90387
1.98563
2.07226
2.15625
2.22704
2.2704
2.27773
2.22338
2.09999
1.95279
1.77675
1.58136
1.37259
1.25168
1.30063
1.39296
1.48774
1.58345
1.67807
1.77139
1.86463
1.95985
2.05916
2.16342
2.271
2.37685
2.47215
2.54409
2.58515
2.55926
2.4624
2.29943
2.11598
1.90153
1.6673
1.43661
1.22052
1.08526
1.40792
1.52684
1.65301
1.78554
1.92132
2.05906
2.19833
2.33863
2.4783
2.6134
2.73687
2.83821
2.90743
2.9175
2.84464
2.69152
2.50222
2.27772
2.01495
1.7356
1.46405
1.2228
1.02007
0.900546
1.56506
1.72207
1.89347
2.07805
2.26893
2.46115
2.65006
2.83023
2.99441
3.13317
3.23572
3.28615
3.23231
3.10078
2.91268
2.67984
2.39513
2.07724
1.75174
1.44476
1.17772
0.964017
0.803604
0.720748
1.79028
1.99391
2.22323
2.4732
2.72783
2.97445
3.20131
3.39674
3.54867
3.64224
3.62298
3.51796
3.332
3.09363
2.78956
2.43755
2.06304
1.69557
1.36274
1.08414
0.8683
0.712435
0.607841
0.565734
2.10852
2.3569
2.65203
2.97412
3.28883
3.57094
3.80012
3.96068
4.0159
3.93298
3.76351
3.51961
3.19662
2.81041
2.38831
1.96325
1.56753
1.2272
0.956236
0.754894
0.613669
0.519628
0.461115
0.443809
2.55224
2.81877
3.17762
3.56484
3.91427
4.18502
4.35065
4.34427
4.21095
3.96878
3.63462
3.214
2.74209
2.25745
1.79767
1.39462
1.06836
0.822395
0.646863
0.525683
0.443339
0.38818
0.354905
0.349217
3.15848
3.37043
3.77666
4.20075
4.53041
4.70523
4.65084
4.46533
4.13406
3.68465
3.16059
2.61016
2.07964
1.60676
1.21831
0.922646
0.709865
0.561204
0.457116
0.382729
0.329684
0.293548
0.273764
0.273198
3.93801
3.97445
4.39918
4.80661
5.01652
4.94059
4.70412
4.26612
3.7
3.07598
2.45897
1.90103
1.43469
1.07474
0.81371
0.629925
0.500176
0.405669
0.334605
0.281641
0.244171
0.22039
0.209944
0.211797
2.00365
2.94363
5.3368
6.84204
7.03987
6.20572
0.87597
1.81838
3.00811
3.9034
4.78803
6.42032
0.241187
1.53586
2.35936
3.09515
3.9466
4.88732
0.26498
1.41946
2.08531
2.76023
3.57281
4.45333
1.19246
1.35407
1.93546
2.59552
3.42876
4.36815
1.37605
1.3124
1.8414
2.50909
3.39188
4.43138
1.52907
1.28465
1.77552
2.46211
3.4122
4.57313
1.64969
1.2631
1.72375
2.43438
3.46426
4.75774
1.73718
1.24329
1.67774
2.41363
3.53183
4.96811
1.79113
1.22247
1.63206
2.39161
3.60472
5.19736
1.81065
1.19903
1.58301
2.36227
3.67575
5.44324
1.8033
1.17254
1.52811
2.32079
3.73868
5.7046
1.76562
1.14393
1.46589
2.26316
3.78681
5.97918
1.71062
1.11436
1.39614
2.18631
3.81356
6.26363
1.63666
1.08076
1.31943
2.08855
3.81143
6.55237
1.54275
1.03952
1.23602
1.96924
3.77025
6.83774
1.42673
0.985532
1.14584
1.82875
3.68069
7.11148
1.28164
0.910233
1.04917
1.66931
3.53163
7.34923
0.280273
0.794002
0.949512
1.49656
3.31512
7.51352
0.268221
0.688566
0.856471
1.32033
3.02613
7.54855
0.252808
0.631381
0.7906
1.15847
2.67259
7.42238
0.231195
0.649082
0.789688
1.04795
2.28684
7.0599
0.868952
0.871463
0.95215
1.08799
1.97391
6.47332
2.10947
2.11329
2.07647
1.94614
2.42086
6.13713
4.61194
4.55058
4.98294
5.28132
5.2217
4.95264
4.41234
3.72727
3.00827
2.33611
1.76373
1.31253
0.980427
0.745134
0.578274
0.456851
0.365141
0.294621
0.241412
0.203507
0.178597
0.16461
0.160525
0.163738
4.78189
5.02892
5.45749
5.49284
5.22871
4.61838
3.81717
3.00469
2.27994
1.69338
1.25128
0.934115
0.709153
0.546218
0.424792
0.332141
0.26142
0.208696
0.171164
0.146151
0.130991
0.123718
0.123201
0.126958
4.90333
5.42743
5.7091
5.52243
4.92518
4.01723
3.10434
2.31582
1.70059
1.24966
0.928538
0.698299
0.529156
0.4026
0.307196
0.23594
0.183816
0.146842
0.121812
0.105983
0.0971739
0.0938781
0.0947918
0.0988014
5.0861
5.73679
5.77759
5.32763
4.37204
3.34218
2.46296
1.79143
1.30623
0.960581
0.711106
0.52773
0.391976
0.291776
0.218721
0.166294
0.129385
0.104122
0.0876452
0.0777216
0.0727402
0.0715906
0.0730794
0.0769439
5.31347
5.9204
5.72343
4.90815
3.75202
2.74449
1.97805
1.42715
1.03469
0.751739
0.545534
0.395326
0.286853
0.209561
0.15521
0.117474
0.0916938
0.0745474
0.0637103
0.0574921
0.0547433
0.0546593
0.0563261
0.0597688
5.5662
5.98576
5.52843
4.37925
3.19999
2.28645
1.62953
1.16294
0.828677
0.587956
0.415512
0.293523
0.208531
0.150112
0.110366
0.0835451
0.0656458
0.0539738
0.0467529
0.0427777
0.0412585
0.0415599
0.0432199
0.0461082
5.83069
5.99214
5.23361
3.88162
2.76
1.94396
1.36621
0.955618
0.663389
0.457251
0.314186
0.216695
0.15129
0.107849
0.0791115
0.0601128
0.0476009
0.0395093
0.034543
0.0318687
0.0309512
0.031336
0.0327943
0.0351371
6.08713
5.96395
4.87064
3.47394
2.42204
1.67844
1.15455
0.785619
0.528758
0.353451
0.236441
0.159808
0.110201
0.0781812
0.0574173
0.0438481
0.0349476
0.0291763
0.0256039
0.0236584
0.022979
0.0232769
0.0244138
0.0262647
6.32119
5.91905
4.51561
3.14056
2.15271
1.46078
0.977421
0.64406
0.419464
0.272182
0.177862
0.11837
0.0810052
0.0573932
0.0422704
0.0324297
0.0259504
0.0216931
0.0189853
0.0174297
0.0167823
0.0168878
0.0176525
0.0190569
6.53489
5.84376
4.21433
2.87458
1.93144
1.27623
0.826777
0.526312
0.331788
0.209561
0.134352
0.0884504
0.0602949
0.0427555
0.0315894
0.0243126
0.0194745
0.0162253
0.0140683
0.0127147
0.0119976
0.0118373
0.0122192
0.0131877
6.73665
5.74177
3.9764
2.6589
1.74335
1.11654
0.698303
0.429223
0.262404
0.161934
0.102316
0.0669009
0.0455469
0.0323552
0.0239669
0.0184717
0.0147701
0.0122188
0.0104379
0.00920397
0.00838947
0.00794006
0.0079029
0.0084054
6.93855
5.63425
3.79295
2.47848
1.57907
0.977074
0.589181
0.350017
0.208137
0.126024
0.0788013
0.0513322
0.0349574
0.0248802
0.0184601
0.014225
0.011334
0.00929239
0.00780103
0.00667539
0.00580139
0.00511332
0.00458191
0.00439626
7.15205
5.54951
3.64342
2.32286
1.43369
0.85539
0.497286
0.286094
0.166067
0.0990577
0.0615075
0.040001
0.0272691
0.0194401
0.0144354
0.0111115
0.00881808
0.00717037
0.00593032
0.00494244
0.0040988
0.00332324
0.00253069
0.0014418
7.3846
5.49315
3.52531
2.18748
1.30454
0.749684
0.420552
0.234935
0.133611
0.0787958
0.0487098
0.0316659
0.0216132
0.0154265
0.0114577
0.00880831
0.00696863
0.00563683
0.00462535
0.00380976
0.00309977
0.00242925
0.00176142
0.000962506
7.64351
5.47005
3.43476
2.0688
1.18972
0.658371
0.356959
0.194229
0.108603
0.0635034
0.039149
0.0254537
0.0173887
0.0124176
0.00921952
0.00707784
0.00558642
0.00450474
0.00368355
0.00302409
0.0024548
0.00192364
0.0014007
0.000820411
7.93895
5.48095
3.36892
1.96422
1.08774
0.579909
0.304566
0.161941
0.0892941
0.051875
0.0319216
0.0207549
0.0141806
0.0101215
0.00750488
0.00574973
0.00452637
0.00363912
0.00296641
0.00242787
0.00196582
0.0015409
0.00113665
0.000717563
8.2856
5.55329
3.32571
1.87155
0.997197
0.51276
0.261576
0.136353
0.0743161
0.0429443
0.0263854
0.017146
0.0117038
0.00833895
0.00616761
0.00471098
0.00369669
0.00296271
0.00240829
0.00196711
0.00159229
0.00125389
0.000942506
0.00063743
8.6988
5.6766
3.30054
1.78851
0.916685
0.455537
0.226356
0.11596
0.0625996
0.0360049
0.0220861
0.014333
0.00976253
0.00693431
0.00510963
0.00388754
0.00303923
0.00242831
0.00197002
0.00160886
0.00130626
0.00103876
0.000799982
0.000576126
9.19719
5.86815
3.28875
1.71258
0.845056
0.406754
0.197298
0.0995573
0.053321
0.0305449
0.0187025
0.0121099
0.00822038
0.00581361
0.00426338
0.00322871
0.00251434
0.00200368
0.00162435
0.00132919
0.00108595
0.000875599
0.000693139
0.000528746
9.83102
6.11927
3.28303
1.64088
0.780929
0.364655
0.173072
0.0862238
0.0458886
0.0261971
0.0160056
0.0103308
0.00698111
0.00491054
0.00358105
0.00269843
0.0020936
0.00166549
0.00135141
0.00111076
0.000916095
0.000751529
0.000612653
0.000492118
10.673
6.4242
3.27252
1.57057
0.721761
0.32771
0.152619
0.0752586
0.0398635
0.0226938
0.0138306
0.00889136
0.00597567
0.00417725
0.00302784
0.00227013
0.00175582
0.00139612
0.00113611
0.000940389
0.000785246
0.000657123
0.000551873
0.000463809
11.8292
6.71146
3.24237
1.4959
0.665273
0.29464
0.135106
0.0661291
0.0349212
0.0198393
0.0120579
0.00771578
0.00515376
0.00357853
0.00257774
0.00192363
0.00148457
0.00118175
0.000966528
0.000807696
0.000684555
0.000585304
0.000505937
0.000441927
13.4666
6.94408
3.16989
1.40953
0.609272
0.264417
0.119895
0.0584366
0.0308217
0.0174897
0.0105998
0.0067484
0.0044781
0.00308793
0.0022109
0.00164324
0.00126696
0.00101144
0.000833236
0.000704591
0.000607243
0.000530767
0.00047125
0.000425004
15.8022
7.08246
3.01984
1.30529
0.552595
0.236506
0.106589
0.0519116
0.0273985
0.0155438
0.00939408
0.00594928
0.00392149
0.00268574
0.0019122
0.00141681
0.00109286
0.000876585
0.000728848
0.00062478
0.000548108
0.000489497
0.000445117
0.000411924
)
;

boundaryField
{
    rotor
    {
        type            epsilonWallFunction;
        value           nonuniform List<scalar> 
144
(
3.09123
8.73882
11.3855
12.2957
46.6491
51.4651
3.09123
1.14402
1.68392
2.33301
2.93635
3.47687
3.94501
4.33567
4.64635
4.87643
5.02741
5.09917
5.09058
4.99955
4.82731
4.57434
4.24138
3.83009
3.34413
2.79116
2.18585
1.5538
1.07451
2.62729
2.62729
7.13972
9.50039
10.7951
10.6876
50.8213
3.49706
2.61157
2.03005
1.84413
2.35747
6.01739
3.49706
1.17281
1.56373
1.96994
2.29938
2.57813
2.82111
3.03365
3.21714
3.37175
3.49781
3.59636
3.66494
3.67513
3.6398
3.54117
3.38168
3.15659
2.86128
2.49067
2.04002
1.50514
1.04525
3.46539
3.46539
8.53117
11.9624
11.5302
9.47658
26.6023
1.93781
2.24268
2.6624
2.70187
2.48459
2.45856
1.93781
0.858332
0.230604
0.253579
0.270256
0.280306
1.2379
1.35635
1.45708
1.53714
1.5959
1.6346
1.64944
1.63921
1.60171
1.53791
1.45014
1.34262
1.22586
0.278594
0.262696
0.238416
0.879805
1.93411
1.93411
2.3206
3.35588
4.21345
4.99988
6.215
2.00365
2.94363
5.3368
6.84204
7.03987
6.20572
2.00365
0.87597
0.241187
0.26498
1.19246
1.37605
1.52907
1.64969
1.73718
1.79113
1.81065
1.8033
1.76562
1.71062
1.63666
1.54275
1.42673
1.28164
0.280273
0.268221
0.252808
0.231195
0.868952
2.10947
2.10947
2.11329
2.07647
1.94614
2.42086
6.13713
)
;
    }
    freestream
    {
        type            inletOutlet;
        inletValue      uniform 0.000375;
        value           nonuniform List<scalar> 
96
(
0.000375
0.000375
0.000375
0.000375
0.000375
0.000375
0.000375
0.000375
0.000375
0.000375
0.000375
0.000375
0.000375
0.000375
0.000375
0.000375
0.000375
0.000375
0.000375
0.000375
0.000375
0.000375
0.000375
0.000375
0.000375
0.000375
0.000375
0.000375
0.000375
0.000375
0.000375
0.000375
0.000375
0.000375
0.000375
0.00222773
0.00351295
0.00493083
0.00648661
0.00821977
0.0101677
0.0123601
0.0148284
0.0176209
0.0208282
0.0246344
0.0294215
0.0359684
0.0458519
0.0630005
0.0986734
0.188624
0.470262
1.18291
2.057
2.41342
2.39259
2.10187
1.95207
1.98158
2.03216
1.85903
1.50168
1.25168
1.08526
0.900546
0.720748
0.565734
0.443809
0.349217
0.273198
0.211797
0.163738
0.126958
0.0988014
0.0769439
0.0597688
0.0461082
0.0351371
0.0262647
0.0190569
0.0131877
0.0084054
0.00439626
0.000375
0.000375
0.000375
0.000375
0.000375
0.000375
0.000375
0.000375
0.000375
0.000375
0.000375
0.000375
)
;
    }
    frontAndBack
    {
        type            empty;
    }
}


// ************************************************************************* //
