/*--------------------------------*- C++ -*----------------------------------*\
  =========                 |
  \\      /  F ield         | OpenFOAM: The Open Source CFD Toolbox
   \\    /   O peration     | Website:  https://openfoam.org
    \\  /    A nd           | Version:  11
     \\/     M anipulation  |
\*---------------------------------------------------------------------------*/
FoamFile
{
    format      ascii;
    class       volScalarField;
    location    "0.88";
    object      nut;
}
// * * * * * * * * * * * * * * * * * * * * * * * * * * * * * * * * * * * * * //

dimensions      [0 2 -1 0 0 0 0];

internalField   nonuniform List<scalar> 
2880
(
1.28113e-06
1.35352e-05
4.76887e-05
0.000114305
4.45412e-05
5.90764e-05
3.81657e-05
0.000108187
0.000207697
0.000338837
0.000387999
0.000504318
5.31697e-05
0.000228366
0.000394691
0.000585392
0.000756382
0.000947008
5.92716e-05
0.00033614
0.000566922
0.000807355
0.00104148
0.00128695
6.39914e-05
0.000425866
0.000715853
0.000995329
0.00126386
0.00152286
6.76951e-05
0.000497812
0.000840372
0.00114955
0.00143586
0.00168775
7.06023e-05
0.000554054
0.000941668
0.00127281
0.00156719
0.00180356
7.28555e-05
0.000596813
0.00102169
0.0013687
0.00166558
0.0018853
7.45515e-05
0.000628027
0.0010825
0.0014409
0.00173696
0.00194215
7.5758e-05
0.000649219
0.00112597
0.00149234
0.00178591
0.00198011
7.65269e-05
0.000661464
0.00115359
0.0015251
0.00181586
0.00200308
7.68903e-05
0.000665537
0.00116644
0.00154051
0.00182919
0.00201296
7.68507e-05
0.000662114
0.00116519
0.00153933
0.00182736
0.00201099
7.63948e-05
0.000651524
0.00115007
0.00152178
0.0018106
0.00199754
7.55126e-05
0.00063385
0.00112086
0.00148763
0.0017778
0.00197091
7.41753e-05
0.000608816
0.00107679
0.00143566
0.00172625
0.00192994
7.23358e-05
0.000575681
0.00101666
0.00136366
0.00165361
0.00187079
6.99235e-05
0.000533271
0.000938657
0.00126882
0.00155603
0.00178776
6.68375e-05
0.00047987
0.000840299
0.00114775
0.00142825
0.00167177
6.29355e-05
0.000413145
0.000718785
0.000996439
0.00126299
0.00150887
5.80164e-05
0.000330368
0.000571346
0.000810662
0.00105067
0.00127713
5.17829e-05
0.000228209
0.000397754
0.000587475
0.000776211
0.000941936
3.58655e-05
0.000108785
0.000205104
0.00033346
0.000424076
0.000502455
1.0897e-06
1.10684e-05
3.98118e-05
0.000100208
0.000193292
5.88558e-05
0.000658383
0.00139828
0.00169987
0.00183002
0.00192054
0.00208515
0.00236675
0.00274145
0.0031555
0.00355161
0.00388435
0.00416214
0.00438615
0.00455013
0.00464366
0.00465785
0.0045918
0.00445691
0.00427599
0.00407661
0.00388228
0.00370781
0.00356065
0.00344281
0.00117686
0.00163847
0.00182943
0.00191472
0.00199275
0.00216456
0.00246192
0.0028492
0.00326643
0.00365237
0.00396962
0.00422893
0.00443181
0.0045715
0.00463703
0.0046202
0.00452312
0.0043626
0.0041673
0.00396808
0.00378749
0.00363614
0.0035162
0.00342553
0.00149648
0.00180072
0.00193137
0.00198853
0.002062
0.00224477
0.00255799
0.00295574
0.00337354
0.00374667
0.00404757
0.00428831
0.00447023
0.00458571
0.0046233
0.0045759
0.00444945
0.00426685
0.00406229
0.00386825
0.00370435
0.00357595
0.00348024
0.00341174
0.00170423
0.00191602
0.00200876
0.00205148
0.00212747
0.00232429
0.00265306
0.00305933
0.00347571
0.00383438
0.00411878
0.0043414
0.00450293
0.00459475
0.00460504
0.00452832
0.00437511
0.00417468
0.00396582
0.00378075
0.00363458
0.0035273
0.0034521
0.00340109
0.00184733
0.00199949
0.0020686
0.00210577
0.00218913
0.00240176
0.0027453
0.00315839
0.00357198
0.00391552
0.00418393
0.00438935
0.00453146
0.0046006
0.00458483
0.00448079
0.0043041
0.00409026
0.00388131
0.0037074
0.00357835
0.00348928
0.0034306
0.00339299
0.00194783
0.00206036
0.00211633
0.00215316
0.00224684
0.00247589
0.00283307
0.00325154
0.00366151
0.0039902
0.00424374
0.00443329
0.00455733
0.00460523
0.00456519
0.00443645
0.00423994
0.00401675
0.00381069
0.00364855
0.00353479
0.00346061
0.00341465
0.00338697
0.00201942
0.0021051
0.00215504
0.00219468
0.00230019
0.00254538
0.00291491
0.00333767
0.0037435
0.00405856
0.00429894
0.00447435
0.00458204
0.00461054
0.00454855
0.00439817
0.00418552
0.00395632
0.00375476
0.00360363
0.00350257
0.00343981
0.00340321
0.00338271
0.00207007
0.00213799
0.00218659
0.0022308
0.00234856
0.00260898
0.00298965
0.00341615
0.00381639
0.00412067
0.00435024
0.00451361
0.00460697
0.00461832
0.0045371
0.00436842
0.00414307
0.00391027
0.00371353
0.00357166
0.00348041
0.00342532
0.00339536
0.00337994
0.0021053
0.00216184
0.00221198
0.00226154
0.00239113
0.00266544
0.00305618
0.00348627
0.00387998
0.00417692
0.00439834
0.00455202
0.00463336
0.00463008
0.00453266
0.00434909
0.00411407
0.00387908
0.00368639
0.00355125
0.00346601
0.00341677
0.00339113
0.00337841
0.00212867
0.00217844
0.00223169
0.00228664
0.00242697
0.00271358
0.00311333
0.0035471
0.00393593
0.00422815
0.004444
0.00459042
0.00466216
0.00464694
0.00453654
0.00434145
0.00409927
0.00386265
0.00367259
0.00354131
0.00345906
0.00341277
0.00338908
0.00337769
0.00214245
0.00218882
0.00224581
0.00230563
0.00245518
0.00275232
0.00316022
0.0035982
0.00398468
0.00427491
0.0044878
0.00462945
0.00469393
0.00466944
0.00454938
0.00434596
0.00409892
0.00386078
0.00367091
0.00354091
0.00346009
0.00341369
0.00338957
0.00337774
0.00214796
0.00219349
0.00225418
0.00231799
0.00247489
0.00278074
0.0031961
0.00363912
0.00402603
0.00431599
0.00452706
0.00466493
0.00472435
0.0046939
0.00456919
0.00436299
0.00411282
0.00387272
0.00368151
0.00354965
0.00346737
0.00341868
0.00339209
0.00337838
0.00214578
0.00219256
0.00225655
0.00232317
0.00248534
0.00279802
0.00321992
0.00366812
0.00405771
0.00435055
0.00456341
0.00470168
0.00476144
0.00473255
0.00460591
0.0043948
0.00414192
0.00389891
0.00370374
0.00356715
0.00348005
0.00342752
0.00339698
0.00337974
0.00213606
0.00218588
0.00225256
0.00232068
0.00248595
0.00280354
0.00323158
0.00368662
0.00408298
0.004382
0.00460067
0.0047449
0.00480801
0.00477769
0.00464892
0.00443835
0.00418479
0.00393859
0.00373752
0.00359361
0.00349915
0.00343996
0.00340366
0.00338172
0.0021179
0.00217294
0.00224183
0.00231012
0.00247629
0.00279712
0.00323107
0.00369426
0.00410114
0.00441049
0.00463805
0.0047879
0.00485394
0.00482579
0.00470083
0.00449345
0.00424079
0.00399128
0.00378276
0.00362916
0.00352483
0.00345668
0.00341272
0.00338449
0.0020902
0.00215302
0.00222387
0.00229112
0.00245613
0.00277844
0.0032178
0.0036901
0.00411035
0.00443189
0.00466983
0.00482786
0.00490046
0.00487908
0.00476073
0.00455912
0.00430899
0.00405649
0.00383945
0.00367417
0.00355761
0.0034782
0.00342454
0.00338826
0.00205085
0.00212498
0.00219807
0.00226339
0.00242534
0.00274745
0.00319166
0.00367387
0.00411025
0.00444652
0.0046971
0.00486603
0.0049485
0.00493649
0.00482743
0.004634
0.00438824
0.00413354
0.00390754
0.00372904
0.0035981
0.00350513
0.0034396
0.00339328
0.00199658
0.00208721
0.00216352
0.00222658
0.00238399
0.00270434
0.00315275
0.00364542
0.00410028
0.00445381
0.00471973
0.00490217
0.00499695
0.00499678
0.00489946
0.00471654
0.00447712
0.00422154
0.00398681
0.00379413
0.00364696
0.00353816
0.00345845
0.00339985
0.00192238
0.00203738
0.0021187
0.00218027
0.00233229
0.00264959
0.00310148
0.00360482
0.00407988
0.00445291
0.00473663
0.00493503
0.00504447
0.00505847
0.00497515
0.00480492
0.00457393
0.00431925
0.00407675
0.0038696
0.00370474
0.00357795
0.00348162
0.00340818
0.00182059
0.00197222
0.00206082
0.00212382
0.00227062
0.00258402
0.00303863
0.0035525
0.00404831
0.00444287
0.00474664
0.00496329
0.00508964
0.00511996
0.00505269
0.00489717
0.00467674
0.00442506
0.00417639
0.00395525
0.00377183
0.00362512
0.00350964
0.00341854
0.00167887
0.00188565
0.00198804
0.00205679
0.00219962
0.00250885
0.0029656
0.00348988
0.00400372
0.00442265
0.00474866
0.00498565
0.00513094
0.00517953
0.00513016
0.0049912
0.00478337
0.00453701
0.00428432
0.0040504
0.00384824
0.00368011
0.00354302
0.00343121
0.00147487
0.00176833
0.00189713
0.00197853
0.00212017
0.00242581
0.00288404
0.00341776
0.00394835
0.00439226
0.00474192
0.00500092
0.0051669
0.00523547
0.00520562
0.00508487
0.00489157
0.00465289
0.00439866
0.00415387
0.00393359
0.00374309
0.0035819
0.0034462
0.00115637
0.00160697
0.00178331
0.00188822
0.00203378
0.00233738
0.00279642
0.00333807
0.00388395
0.00435211
0.00472595
0.00500808
0.00519614
0.00528613
0.00527722
0.00517612
0.00499909
0.00477035
0.0045172
0.00426388
0.00402675
0.00381355
0.00362632
0.00346347
0.000620818
0.00136089
0.00164131
0.00178692
0.00194342
0.00224716
0.00270606
0.00325341
0.00381234
0.00430283
0.00470052
0.00500632
0.00521744
0.00533001
0.00534322
0.00526303
0.00510379
0.00488704
0.00463753
0.00437824
0.00412602
0.00389047
0.00367583
0.00348283
1.45727e-06
4.07088e-06
8.50579e-06
1.70803e-05
4.24062e-05
0.000191973
3.92748e-05
5.55823e-05
7.95015e-05
0.00011892
0.000190308
0.000315564
5.20449e-05
9.404e-05
0.00014619
0.000213864
0.000299073
0.000413936
5.61927e-05
0.000122963
0.000202442
0.000286354
0.000375884
0.000479955
5.91476e-05
0.000153528
0.000256611
0.000344748
0.000429234
0.000526229
6.14322e-05
0.000186666
0.000307689
0.0003932
0.000468128
0.000551897
6.32925e-05
0.000221577
0.000353722
0.00043258
0.00049954
0.000576965
6.48343e-05
0.000256972
0.000393764
0.000464418
0.000526472
0.000594818
6.6109e-05
0.000291467
0.000427862
0.0004915
0.000549301
0.000610125
6.71463e-05
0.000323604
0.000456654
0.000515929
0.000570585
0.000624133
6.79692e-05
0.000351799
0.000481072
0.000538871
0.000590664
0.000637681
6.85992e-05
0.000374262
0.000502124
0.00056096
0.000609969
0.000651446
6.90346e-05
0.000389711
0.000520062
0.00058223
0.000629276
0.000666085
6.91005e-05
0.000399252
0.000534229
0.000602422
0.000649131
0.000682501
6.88841e-05
0.000402566
0.000543601
0.000620775
0.000669045
0.000701629
6.82614e-05
0.000398281
0.000546696
0.000635786
0.000688199
0.000723415
6.72274e-05
0.00038579
0.000541355
0.000645179
0.00070611
0.000744327
6.57085e-05
0.000362818
0.000525317
0.000645494
0.000720234
0.000766577
6.35998e-05
0.000327454
0.000495178
0.000631476
0.000725236
0.000784979
6.07347e-05
0.000278171
0.0004472
0.000596235
0.000708265
0.000781874
5.68356e-05
0.000216221
0.00037743
0.000532688
0.000657129
0.000734173
5.13697e-05
0.000144069
0.00028244
0.000432054
0.000554624
0.000612478
3.49989e-05
6.54277e-05
0.000163082
0.000284561
0.000386388
0.000362411
1.44543e-06
1.33055e-05
5.03911e-05
0.000107376
0.000171318
4.63158e-05
0.000580371
0.00123359
0.00151915
0.00168916
0.0018565
0.00216014
0.00261672
0.00316654
0.00373537
0.00424518
0.00466557
0.004995
0.00522974
0.00536574
0.00540202
0.00534376
0.0052036
0.00500061
0.00475708
0.00449437
0.00422919
0.00397224
0.00372957
0.00350392
0.000590057
0.00118874
0.00144927
0.00160635
0.00177697
0.00207975
0.00253118
0.00307954
0.00365442
0.00417982
0.00462109
0.00497356
0.00523208
0.00539205
0.0054521
0.00541659
0.00529656
0.00510883
0.00487331
0.00460957
0.00433362
0.00405667
0.00378602
0.00352595
0.000607033
0.00112145
0.00141125
0.00155132
0.00171201
0.00200736
0.00245033
0.00299317
0.00357003
0.00410704
0.00456696
0.00494146
0.00522356
0.00540776
0.00549207
0.00547991
0.00538082
0.00520955
0.00498375
0.00472108
0.00443649
0.00414112
0.00384302
0.00354763
0.000626621
0.00108855
0.00136931
0.00151036
0.00166044
0.00194322
0.00237386
0.00290712
0.00348192
0.00402673
0.00450288
0.00489815
0.00520336
0.0054118
0.00552062
0.00553224
0.00545472
0.00530084
0.00508614
0.00482632
0.00453498
0.00422271
0.00389785
0.00356702
0.000646816
0.00106156
0.001315
0.00147397
0.00161774
0.00188688
0.00230067
0.00282052
0.00338941
0.0039385
0.00442841
0.00484303
0.00517069
0.00540321
0.00553666
0.00557233
0.00551682
0.00538108
0.00517857
0.00492305
0.00462655
0.00429865
0.00394757
0.00358158
0.000666858
0.00103888
0.00127037
0.00143629
0.0015786
0.00183437
0.00222902
0.00273224
0.00329164
0.0038418
0.00434307
0.00477553
0.00512488
0.00538121
0.00553932
0.00559924
0.00556611
0.0054491
0.00525969
0.00500966
0.00470927
0.00436668
0.0039894
0.00358828
0.000685898
0.00101887
0.0012366
0.0013951
0.00153859
0.00178268
0.00215728
0.00264117
0.0031878
0.00373609
0.00424639
0.00469517
0.00506543
0.0053453
0.00552812
0.00561256
0.00560222
0.00550454
0.00532906
0.00508556
0.00478232
0.00442559
0.00402136
0.00358398
0.000702319
0.00100022
0.00120324
0.00135054
0.00149694
0.00172996
0.00208399
0.00254632
0.00307719
0.0036209
0.00413796
0.00460158
0.00499201
0.00529529
0.0055031
0.00561259
0.0056258
0.00554838
0.00538792
0.00515209
0.00484696
0.0044763
0.00404334
0.00356604
0.000716078
0.000982253
0.00117062
0.00130754
0.00145428
0.00167507
0.00200794
0.00244693
0.00295933
0.00349587
0.00401742
0.00449442
0.00490441
0.00523124
0.00546476
0.00560052
0.0056389
0.00558373
0.00544053
0.00521465
0.00490941
0.00452513
0.00406022
0.00353401
0.000727562
0.000964739
0.00113888
0.001266
0.00140947
0.0016172
0.0019283
0.00234245
0.00283382
0.00336067
0.00388443
0.00437331
0.00480235
0.00515318
0.0054138
0.00557814
0.00564498
0.00561642
0.00549599
0.00528654
0.00498806
0.00459545
0.00409669
0.00349885
0.000737265
0.000947658
0.00110792
0.00122536
0.00136172
0.00155513
0.00184265
0.00223081
0.00269996
0.0032149
0.00373848
0.00423758
0.00468508
0.00506054
0.00535023
0.00554667
0.00564746
0.00565368
0.005568
0.00539276
0.00512736
0.00476314
0.00426784
0.00355358
0.000745805
0.000931293
0.00107773
0.00118517
0.00131234
0.00149016
0.00175261
0.00211298
0.00255803
0.00305837
0.003579
0.00408618
0.00455109
0.00495148
0.00527217
0.00550471
0.00564633
0.00569863
0.00566656
0.00555878
0.0053901
0.0051862
0.00498631
0.00484348
0.000753902
0.000915927
0.00104812
0.00114567
0.00126299
0.00142284
0.00165939
0.00199024
0.0024087
0.00289117
0.00340539
0.00391773
0.00439813
0.0048228
0.00517538
0.00544684
0.00563458
0.00574118
0.0057735
0.00574279
0.00566607
0.00556808
0.00548081
0.00544096
0.000762277
0.000902115
0.00102125
0.00110993
0.00121433
0.00135373
0.00156406
0.00186389
0.00225298
0.00271374
0.00321732
0.00373091
0.00422365
0.00467049
0.00505395
0.00536437
0.00559895
0.0057604
0.0058556
0.00589495
0.0058923
0.0058679
0.00584254
0.00583566
0.00077202
0.000890475
0.000993197
0.00107351
0.00116535
0.00128496
0.00146817
0.0017355
0.00209231
0.00252703
0.00301494
0.00352475
0.00402534
0.00449052
0.00490161
0.00524782
0.00552528
0.00573535
0.00588317
0.00597728
0.00602782
0.0060557
0.0060663
0.00607892
0.000785705
0.000883369
0.000969398
0.00103993
0.0011156
0.00121689
0.00137316
0.001607
0.00192868
0.00233272
0.00279914
0.00329901
0.00380144
0.00427934
0.00471266
0.00508909
0.00540293
0.00565347
0.00583995
0.00597391
0.00607411
0.00612935
0.0061641
0.00618824
0.000799764
0.000877892
0.000948749
0.00100726
0.0010684
0.0011511
0.00128083
0.00148061
0.00176465
0.00213325
0.00257174
0.00305437
0.00355113
0.00403432
0.00448259
0.00488195
0.00522496
0.00550337
0.00571889
0.00589945
0.00602554
0.00610542
0.00615759
0.00618964
0.00081988
0.000879471
0.000932994
0.000978004
0.0010247
0.00108906
0.00119295
0.00135868
0.0016031
0.00193175
0.00233555
0.00279274
0.00327494
0.00375433
0.00420853
0.00462217
0.00498475
0.00528027
0.00552681
0.00574404
0.00589195
0.00599338
0.00606059
0.00609933
0.000839099
0.000886346
0.000923088
0.00095356
0.00098562
0.00103206
0.00111113
0.00124343
0.00144711
0.00173193
0.00209441
0.00251745
0.00297517
0.00344032
0.00389009
0.00430867
0.00467515
0.00498803
0.00526047
0.00550419
0.00567478
0.00579744
0.00587941
0.00592463
0.000845746
0.000895254
0.000917857
0.000934324
0.000951946
0.000981063
0.00103656
0.00113664
0.00129947
0.00153773
0.00185302
0.00223334
0.00265623
0.00309576
0.0035293
0.00394121
0.00430214
0.0046242
0.00491212
0.00517898
0.00537419
0.00551796
0.00561541
0.00566755
0.000821996
0.000893501
0.000910554
0.000917362
0.000922797
0.000936294
0.000970191
0.00104013
0.00116318
0.00135358
0.00161708
0.00194694
0.0023249
0.00272729
0.00313222
0.00352455
0.00387102
0.00419145
0.00448152
0.00476539
0.00498738
0.00515246
0.00526703
0.00532723
0.000743725
0.000857741
0.000886349
0.000893709
0.000893057
0.000894958
0.000910637
0.000953688
0.00103961
0.00118292
0.00139227
0.00166573
0.00198994
0.00234454
0.00270913
0.0030693
0.00339185
0.00369667
0.00398007
0.00426232
0.00450967
0.00469691
0.00483132
0.00490178
0.000610321
0.000757014
0.000824399
0.000848829
0.000853192
0.000851536
0.000855358
0.000876962
0.000930233
0.00102917
0.00118424
0.00139781
0.00166174
0.00195984
0.00227403
0.00259121
0.00288096
0.00315606
0.00342309
0.00368316
0.00394163
0.00415091
0.00430659
0.00439069
0.000414943
0.000611627
0.000719091
0.000769315
0.000788841
0.000793461
0.000794676
0.000803609
0.000832515
0.000894255
0.000999661
0.00115398
0.00135414
0.00158926
0.00184501
0.00211007
0.00236048
0.00259485
0.00283323
0.00306036
0.00329636
0.00352266
0.00369897
0.00380101
8.01505e-07
3.46869e-06
1.11276e-05
2.506e-05
4.47988e-05
7.86603e-05
2.8607e-05
6.20152e-05
0.000112256
0.000164012
0.000216605
0.0002564
0.000163596
0.000141668
0.000233987
0.000321332
0.000398757
0.000444376
0.000179779
0.000204875
0.000337248
0.000454852
0.000552008
0.000611081
0.000190901
0.000250283
0.000420333
0.00056325
0.000676717
0.000750805
0.000199043
0.000279853
0.000487353
0.000651556
0.000779288
0.000867063
4.80587e-05
0.000302021
0.000541087
0.00072324
0.000863266
0.000963765
4.93607e-05
0.000325613
0.000584597
0.000780897
0.000931611
0.00104363
5.05419e-05
0.000347728
0.000619683
0.000826182
0.000986438
0.00110892
5.14494e-05
0.000367011
0.000646658
0.000860315
0.00102903
0.0011611
5.20972e-05
0.000382206
0.000665381
0.000883895
0.00106002
0.00120098
5.25163e-05
0.00039215
0.000675524
0.000897037
0.00107954
0.00122885
5.26761e-05
0.000396399
0.00067677
0.000899408
0.00108729
0.0012445
5.25683e-05
0.000394983
0.000668553
0.000890442
0.00108255
0.00124716
5.21669e-05
0.000387752
0.000650649
0.000869388
0.0010643
0.00123565
5.14691e-05
0.000374409
0.000622349
0.000835374
0.00103121
0.00120837
5.04776e-05
0.00035446
0.000583069
0.000787403
0.000981738
0.00116352
4.92076e-05
0.000327291
0.000532247
0.000724459
0.000914197
0.00109927
4.77495e-05
0.000292229
0.00046941
0.000645581
0.000826833
0.00101379
0.000197487
0.000248514
0.000394245
0.00054997
0.00071791
0.000905139
0.000186237
0.000192438
0.000306725
0.000437187
0.000585917
0.000770796
0.000169044
0.000126151
0.000207511
0.000307733
0.000430344
0.000607254
2.93165e-05
5.38617e-05
0.000100084
0.000165735
0.000256557
0.000410702
8.00129e-07
3.58672e-06
1.40093e-05
3.90496e-05
9.02708e-05
0.000198972
0.000286213
0.000488219
0.000601395
0.000676749
0.000706321
0.000718746
0.000722908
0.000727052
0.000740174
0.000772421
0.000834592
0.000934332
0.00107296
0.00124451
0.00143849
0.00164528
0.00185317
0.00204341
0.00223661
0.00243531
0.00262771
0.00282821
0.00301831
0.00315651
0.000304662
0.000422983
0.000513899
0.000579645
0.000628658
0.000641484
0.000646093
0.000648522
0.000654675
0.000671634
0.000701665
0.000751936
0.000827529
0.00092917
0.00105339
0.00119504
0.00135009
0.0015045
0.00165383
0.0018133
0.00197996
0.00214675
0.00230656
0.00247817
0.000447653
0.000471732
0.000518533
0.000561306
0.000590525
0.000607803
0.000606831
0.000599818
0.000595853
0.000598774
0.000606638
0.000626132
0.000660458
0.000710552
0.000775972
0.00085589
0.000948306
0.00104979
0.0011612
0.00127523
0.00139147
0.00151888
0.00166281
0.00181445
0.000623667
0.000609976
0.000622291
0.000634919
0.000662681
0.000672255
0.000678628
0.000672903
0.000662791
0.000650275
0.000643269
0.000644834
0.000654483
0.000670128
0.000692951
0.000723864
0.000762865
0.000810609
0.000866961
0.000929825
0.000999344
0.00107934
0.00117353
0.00129321
0.000784886
0.000779544
0.000781825
0.000793706
0.000815146
0.000837214
0.000852148
0.000859937
0.000870041
0.000874827
0.000878078
0.000882073
0.00088855
0.000896748
0.000905036
0.000914091
0.000924016
0.000934251
0.000944909
0.000957113
0.000971808
0.000993415
0.00101437
0.00107336
0.000922881
0.000940866
0.000953563
0.000972593
0.00099972
0.00103162
0.00106421
0.00109553
0.00112838
0.0011597
0.00118596
0.00121082
0.00123981
0.00126786
0.00128751
0.0013005
0.00131142
0.00131626
0.00131357
0.00130471
0.00129043
0.00127477
0.001254
0.00125987
0.00103864
0.00108073
0.00111001
0.00114103
0.00117848
0.00122209
0.00126919
0.00131905
0.00137081
0.00142234
0.00147299
0.00152349
0.00157268
0.00161499
0.00164683
0.00167437
0.00170317
0.00172324
0.00172718
0.00172166
0.00170819
0.00168796
0.00166168
0.00164947
0.00113501
0.00119765
0.00124313
0.00128624
0.00133338
0.00138563
0.00144257
0.00150306
0.00156532
0.00162739
0.00168789
0.00174555
0.00179876
0.00184591
0.00188524
0.00191431
0.00194103
0.00196481
0.00197597
0.00197968
0.00197981
0.00197846
0.00197822
0.00198498
0.00121462
0.00129399
0.00135302
0.00140589
0.00145952
0.00151753
0.00157956
0.00164457
0.00171088
0.00177669
0.00184032
0.00190014
0.0019546
0.00200256
0.00204289
0.00207364
0.00210004
0.00212077
0.00213093
0.00213456
0.00213409
0.00213177
0.00213028
0.00213232
0.00127938
0.00137264
0.0014425
0.00150225
0.00156005
0.00161932
0.00168085
0.00174397
0.00180727
0.00186915
0.00192806
0.00198258
0.00203149
0.00207438
0.00211076
0.00214155
0.00216755
0.00218792
0.00220511
0.00221885
0.00222937
0.00223704
0.00224133
0.00224036
0.00133057
0.00143611
0.00151489
0.00157963
0.00163866
0.00169589
0.0017527
0.00180892
0.00186361
0.00191553
0.00196359
0.00200665
0.00204348
0.00207512
0.00210305
0.00212615
0.0021445
0.00215755
0.0021627
0.00216165
0.00215674
0.00215049
0.00214216
0.00213646
0.00136917
0.00148593
0.00157294
0.00164169
0.00170036
0.00175367
0.00180322
0.0018493
0.00189141
0.00192923
0.00196087
0.00198456
0.0020008
0.00200764
0.00200332
0.00199141
0.00197799
0.00196857
0.00196602
0.00196543
0.00197109
0.001985
0.00200321
0.00201432
0.00139528
0.00152211
0.00161715
0.00169076
0.00174978
0.00179865
0.00183974
0.00187357
0.00189994
0.00191661
0.00192257
0.00191717
0.00190079
0.00187544
0.00184612
0.00181695
0.00178992
0.00176733
0.00175707
0.00176145
0.00177483
0.00179613
0.00182823
0.00186431
0.00140822
0.00154567
0.00164793
0.00172509
0.00178429
0.00182966
0.00186315
0.00188533
0.00189564
0.0018939
0.00188042
0.00185604
0.00182303
0.00178473
0.00174387
0.00170306
0.00166435
0.00162734
0.00158859
0.00156421
0.0015545
0.00155619
0.00157593
0.00160798
0.00140675
0.00155454
0.00166438
0.00174584
0.00180582
0.00184828
0.00187515
0.00188708
0.00188421
0.00186714
0.00183717
0.00179672
0.00174912
0.0016984
0.00164778
0.0015996
0.00155327
0.00150843
0.00146173
0.00142427
0.00139192
0.00136753
0.0013754
0.00141731
0.00138924
0.00154669
0.00166292
0.00174764
0.00180794
0.00184791
0.00186967
0.00187436
0.0018631
0.00183763
0.00180057
0.00175538
0.00170576
0.00165518
0.00160419
0.00155998
0.00150768
0.00144902
0.00141096
0.00136463
0.00131986
0.00128431
0.00127801
0.00135288
0.00135419
0.0015205
0.00164135
0.00172754
0.00178712
0.00182484
0.00184344
0.00184489
0.00183129
0.00180522
0.00176964
0.00172797
0.00168227
0.00163746
0.00158448
0.00152573
0.00146447
0.00142531
0.00137509
0.00132291
0.00127992
0.00125351
0.00126459
0.00136145
0.00130092
0.00147593
0.00159972
0.00168556
0.00174347
0.00177937
0.00179683
0.00179848
0.00178678
0.00176433
0.00173309
0.00169661
0.00164802
0.00159225
0.0015334
0.00149114
0.00144101
0.00137996
0.00132165
0.00127244
0.00124134
0.00124022
0.0013008
0.00144838
0.00123025
0.0014155
0.00154143
0.00162581
0.00168161
0.00171616
0.00173359
0.00173661
0.00172698
0.00170777
0.00167522
0.00162259
0.00158067
0.00154022
0.00149437
0.00143342
0.00137001
0.00130958
0.00125913
0.00122835
0.0012309
0.0012845
0.00143425
0.00162709
0.00114501
0.00134454
0.00147307
0.00155566
0.00160922
0.00164233
0.00165923
0.00166238
0.00165015
0.0016145
0.00158668
0.00155678
0.00152124
0.00146507
0.00140288
0.00133951
0.00128125
0.00123621
0.00121477
0.00122999
0.00129885
0.00144318
0.00169045
0.00190839
0.00105021
0.00127048
0.00140281
0.00148354
0.00153441
0.00156495
0.00157918
0.00157014
0.00154487
0.00153821
0.00151647
0.00147052
0.00141504
0.00135518
0.00129665
0.00124663
0.0012141
0.00120982
0.00124532
0.00133304
0.00148965
0.00173196
0.00200496
0.0022658
0.000952739
0.00120138
0.00133827
0.00141632
0.00146307
0.0014886
0.0014844
0.00147948
0.00147799
0.00145573
0.00140888
0.00135656
0.00130279
0.0012535
0.00121689
0.00120284
0.00122112
0.00127908
0.00138213
0.00154035
0.00177363
0.00205445
0.00236673
0.0026625
0.000860852
0.00114429
0.00128456
0.0013575
0.00139717
0.00140316
0.00141287
0.00141153
0.00138796
0.00134697
0.0013009
0.00125584
0.00121933
0.00120016
0.00120734
0.00124667
0.00131913
0.0014251
0.00157291
0.00178517
0.00207626
0.00240491
0.00277569
0.00307645
0.000786323
0.00110427
0.00124327
0.0013065
0.00132803
0.00134676
0.0013461
0.00132651
0.00129135
0.00125323
0.00121931
0.00119775
0.0011965
0.00122128
0.00127252
0.00134724
0.00144637
0.00158122
0.00177558
0.0020602
0.00240996
0.00280569
0.00321302
0.00351795
8.30425e-07
4.58282e-06
2.249e-05
6.39134e-05
0.000127733
0.000205565
2.92131e-05
4.4559e-05
0.000102685
0.000197884
0.000304229
0.000375182
0.000171211
0.000107384
0.000204769
0.000338183
0.000479066
0.000624087
0.000188112
0.000168026
0.000295101
0.000452583
0.000612414
0.000766083
4.73895e-05
0.000222977
0.000369669
0.000538137
0.000697679
0.000835713
4.97196e-05
0.000267738
0.000428501
0.000598002
0.000746678
0.00086217
5.15071e-05
0.000302061
0.000472779
0.000636774
0.000769947
0.00086338
5.28295e-05
0.000326906
0.000504152
0.000658989
0.000775714
0.000851339
5.37464e-05
0.000343319
0.000524385
0.00066857
0.00077016
0.000832787
5.42958e-05
0.000352291
0.00053547
0.000668635
0.000757363
0.00081128
5.44905e-05
0.000354722
0.000538305
0.000661515
0.000740113
0.000788632
5.44161e-05
0.000350875
0.000534346
0.000648857
0.000719498
0.000765639
5.40356e-05
0.000340789
0.000524511
0.000631841
0.000696534
0.000742639
5.34696e-05
0.000324347
0.000509268
0.000611206
0.000671669
0.000719702
5.26885e-05
0.000303179
0.000488792
0.000587077
0.00064492
0.000696673
5.16618e-05
0.000278902
0.000463424
0.000559178
0.000616295
0.000673175
5.03322e-05
0.000253364
0.000433778
0.000526932
0.000584911
0.00064861
4.83632e-05
0.000229444
0.00040071
0.000489435
0.000549446
0.000621812
0.000200257
0.000214916
0.000364422
0.000445492
0.000507692
0.000591048
0.000191135
0.000200366
0.000323095
0.000394207
0.000456868
0.000554118
0.000179368
0.000173987
0.000270193
0.000331787
0.000394262
0.00050465
0.00016401
0.000127667
0.000195742
0.0002493
0.000314543
0.000436113
2.89719e-05
5.87916e-05
9.75054e-05
0.000135075
0.000201602
0.000331732
8.73852e-07
3.26942e-06
8.67432e-06
1.80835e-05
4.39571e-05
0.000197382
0.000780095
0.001087
0.00120999
0.00125321
0.00128248
0.00128359
0.00127135
0.00124378
0.00121487
0.00119282
0.00118541
0.00119817
0.00123262
0.00128607
0.00135673
0.00144925
0.00157676
0.00176132
0.00202926
0.00239626
0.00280492
0.00325398
0.00366309
0.00396213
0.000868341
0.00108881
0.00117535
0.00121578
0.00122439
0.00122169
0.00120253
0.00118316
0.00117211
0.00117582
0.00119704
0.00123479
0.00128701
0.00135526
0.00144635
0.00157215
0.00175004
0.00200199
0.0023484
0.00277211
0.00322562
0.00370045
0.00409456
0.00437776
0.000936376
0.00108482
0.00114483
0.0011657
0.00117359
0.00116394
0.00115403
0.00115243
0.00116425
0.00119044
0.00122975
0.00128209
0.00135102
0.00144331
0.0015682
0.00173828
0.00197054
0.00228466
0.00269366
0.00315307
0.00363651
0.00410326
0.00448773
0.00473754
0.00096694
0.00106428
0.00111076
0.00111879
0.00112457
0.00112355
0.00113048
0.00114909
0.00117959
0.00122126
0.00127525
0.00134553
0.00143795
0.00155981
0.00172056
0.0019334
0.00221544
0.00258246
0.003037
0.00351566
0.00400703
0.00445226
0.00482038
0.00503157
0.000969447
0.0010379
0.0010615
0.0010795
0.0010888
0.00110421
0.00112973
0.00116534
0.00121041
0.0012663
0.00133676
0.00142721
0.00154435
0.00169629
0.00189336
0.00214858
0.0024758
0.00288306
0.00336201
0.00384176
0.00431921
0.00473234
0.00507307
0.00524972
0.000954385
0.0010079
0.0010219
0.00104715
0.0010712
0.0011046
0.00114676
0.00119624
0.00125394
0.00132353
0.00141072
0.00152257
0.00166687
0.00185191
0.00208656
0.0023802
0.00274078
0.0031687
0.00364839
0.00411232
0.00455653
0.00493624
0.00523445
0.00538555
0.000929535
0.000970353
0.000990791
0.00102861
0.00107128
0.00112169
0.00117708
0.00123733
0.00130602
0.00138951
0.00149566
0.00163256
0.00180754
0.00202668
0.00229507
0.00261709
0.00299469
0.00342249
0.00388169
0.00431669
0.00471412
0.00505086
0.00530434
0.0054342
0.000901613
0.000932897
0.000973029
0.00102539
0.00108627
0.0011504
0.00121552
0.00128458
0.00136457
0.00146446
0.00159328
0.00175854
0.00196529
0.00221598
0.00251103
0.00284932
0.00322723
0.00363557
0.00405565
0.00444949
0.00478878
0.00507207
0.00528283
0.00539161
0.000874452
0.00090343
0.000966371
0.00103735
0.00111295
0.0011866
0.00125885
0.00133659
0.00142999
0.00154966
0.00170441
0.00189976
0.00213732
0.00241508
0.0027283
0.00307045
0.0034333
0.00380562
0.00417123
0.00450875
0.00478458
0.0050019
0.00516799
0.00525416
0.000849363
0.000885322
0.000969871
0.00105865
0.00114609
0.00122675
0.00130555
0.00139344
0.00150318
0.00164594
0.001829
0.00205467
0.00232033
0.00261927
0.00294192
0.0032771
0.00361297
0.00393732
0.00423713
0.00449857
0.0047086
0.00485297
0.00495498
0.00501631
0.000826767
0.000877488
0.000981492
0.00108695
0.00118348
0.00126966
0.00135547
0.00145574
0.00158492
0.00175352
0.001966
0.00222062
0.00251036
0.00282432
0.00314895
0.00346944
0.00377111
0.00404079
0.00426782
0.00444465
0.00456713
0.00463413
0.00464943
0.00464802
0.000806143
0.000877391
0.000999896
0.00112054
0.00122399
0.00131502
0.00140903
0.00152415
0.00167555
0.00187176
0.0021134
0.00239435
0.00270362
0.00302703
0.00334827
0.00365012
0.00391588
0.00413109
0.00428531
0.00437348
0.00439527
0.00434938
0.00422788
0.00401513
0.000786851
0.00088177
0.00102659
0.00115858
0.0012668
0.0013626
0.00146639
0.00159882
0.00177463
0.00199917
0.00226852
0.00257236
0.00289658
0.00322486
0.00353947
0.00382215
0.00405531
0.00422344
0.0043144
0.00431978
0.00423135
0.00402311
0.00360048
0.00288371
0.000768592
0.000891722
0.00105811
0.00119928
0.00131128
0.00141241
0.00152772
0.00167953
0.00188112
0.00213365
0.00242832