/*--------------------------------*- C++ -*----------------------------------*\
  =========                 |
  \\      /  F ield         | OpenFOAM: The Open Source CFD Toolbox
   \\    /   O peration     | Website:  https://openfoam.org
    \\  /    A nd           | Version:  11
     \\/     M anipulation  |
\*---------------------------------------------------------------------------*/
FoamFile
{
    format      ascii;
    class       volScalarField;
    location    "0.88";
    object      p;
}
// * * * * * * * * * * * * * * * * * * * * * * * * * * * * * * * * * * * * * //

dimensions      [0 2 -2 0 0 0 0];

internalField   nonuniform List<scalar> 
2880
(
1.21143
1.22139
1.24208
1.28712
1.30172
1.4272
1.21219
1.22167
1.23892
1.27331
1.25538
1.29669
1.21276
1.22164
1.2344
1.25802
1.22936
1.21991
1.21272
1.22079
1.22914
1.24296
1.20886
1.17866
1.21223
1.21936
1.22368
1.22927
1.19283
1.15613
1.2114
1.21759
1.21828
1.21716
1.18167
1.14003
1.21025
1.2155
1.21303
1.20671
1.17267
1.13066
1.20882
1.21309
1.20794
1.19765
1.16501
1.1249
1.20717
1.21044
1.20305
1.18973
1.15828
1.12042
1.2054
1.20767
1.19845
1.18274
1.15207
1.11606
1.20358
1.20491
1.19422
1.17655
1.14612
1.11122
1.20182
1.20228
1.19044
1.1711
1.14026
1.10555
1.20017
1.19994
1.1872
1.16635
1.1344
1.09885
1.19867
1.19796
1.18454
1.16233
1.12853
1.09105
1.19736
1.19637
1.18248
1.1591
1.12269
1.08214
1.19624
1.19515
1.18101
1.15676
1.11702
1.07231
1.1953
1.19425
1.18013
1.15547
1.11177
1.06199
1.19453
1.19359
1.17982
1.15544
1.10739
1.05213
1.1939
1.19314
1.18014
1.15703
1.10467
1.04411
1.19338
1.1929
1.18126
1.16076
1.10436
1.03825
1.19299
1.19294
1.18338
1.16721
1.10749
1.0379
1.19278
1.1933
1.18662
1.17654
1.11772
1.05433
1.19287
1.19375
1.19032
1.1872
1.14281
1.10485
1.1931
1.19395
1.19258
1.19678
1.17567
1.19531
0.494147
0.570551
0.547668
0.557172
0.557459
0.5505
0.538961
0.525807
0.513104
0.501965
0.492668
0.484981
0.47861
0.473397
0.469216
0.465928
0.463373
0.461383
0.459677
0.457784
0.455989
0.458023
0.468738
0.466712
0.69413
0.69038
0.64016
0.627518
0.613895
0.597279
0.578638
0.56016
0.543468
0.529326
0.517719
0.508211
0.500403
0.494064
0.489013
0.485059
0.481993
0.479606
0.477602
0.475551
0.473722
0.475364
0.484555
0.482758
0.82316
0.779185
0.718317
0.689944
0.665046
0.64012
0.615189
0.591926
0.571619
0.55474
0.541005
0.529807
0.520661
0.513274
0.507419
0.502853
0.499321
0.49657
0.494298
0.492118
0.490284
0.491561
0.49925
0.497583
0.900408
0.845229
0.781569
0.743096
0.709792
0.678155
0.647936
0.620567
0.597116
0.577828
0.562199
0.549478
0.539121
0.530788
0.524209
0.519095
0.515145
0.512065
0.509549
0.507258
0.505446
0.506414
0.512598
0.510747
0.953553
0.895663
0.831804
0.787088
0.747797
0.710965
0.676478
0.645718
0.619629
0.598294
0.581028
0.566976
0.555554
0.54639
0.539176
0.533582
0.529259
0.525879
0.523134
0.520736
0.518927
0.519561
0.524286
0.522344
0.992754
0.93385
0.870981
0.82258
0.779166
0.738442
0.700627
0.667162
0.638938
0.615915
0.597278
0.582096
0.569767
0.559895
0.552141
0.546135
0.541487
0.537837
0.534878
0.532372
0.530529
0.530766
0.534143
0.532391
1.01967
0.961948
0.900805
0.85038
0.80422
0.760669
0.720341
0.684794
0.654902
0.630537
0.610788
0.594679
0.581604
0.571152
0.562954
0.556608
0.551684
0.547798
0.544652
0.542048
0.540144
0.539954
0.542169
0.540891
1.03737
0.981819
0.922666
0.871274
0.823362
0.77783
0.735674
0.698585
0.667444
0.642056
0.62144
0.604605
0.590945
0.580038
0.571493
0.564877
0.55973
0.55565
0.552351
0.549672
0.547719
0.547159
0.548412
0.547556
1.04821
0.99493
0.937665
0.88595
0.836997
0.790143
0.746723
0.708556
0.676533
0.650411
0.629157
0.611787
0.597697
0.586457
0.577658
0.570841
0.565524
0.561292
0.557876
0.555144
0.553157
0.552306
0.552796
0.552267
1.05366
1.00231
0.946636
0.894969
0.845479
0.79782
0.753601
0.714748
0.682167
0.65557
0.633893
0.616168
0.601795
0.590337
0.581371
0.574419
0.568981
0.564642
0.561143
0.558376
0.556367
0.555299
0.555234
0.554957
1.05455
1.00464
0.950164
0.898748
0.849084
0.801034
0.756405
0.717207
0.68435
0.65751
0.63561
0.6177
0.603184
0.591618
0.582569
0.575547
0.570043
0.565641
0.562094
0.559309
0.557287
0.556088
0.555682
0.555568
1.05134
1.00231
0.948606
0.89755
0.847995
0.7999
0.7552
0.715955
0.683078
0.656213
0.634283
0.616353
0.601832
0.590269
0.58122
0.574192
0.568674
0.564256
0.560698
0.557911
0.555887
0.554635
0.554113
0.55408
1.04418
0.995448
0.942102
0.891484
0.842291
0.794472
0.750017
0.71101
0.678356
0.651683
0.629918
0.612137
0.597743
0.586286
0.577324
0.570358
0.56488
0.560489
0.556952
0.55418
0.55216
0.550936
0.550521
0.550484
1.03294
0.983969
0.930583
0.880507
0.831945
0.784735
0.740852
0.702376
0.670197
0.643938
0.622533
0.605061
0.590932
0.579697
0.570906
0.564063
0.558675
0.554356
0.550876
0.548133
0.546125
0.545008
0.544917
0.544793
1.01719
0.967525
0.913765
0.864417
0.816823
0.770603
0.727652
0.690024
0.658588
0.632972
0.612128
0.59514
0.581422
0.57052
0.561986
0.555336
0.550097
0.545899
0.542512
0.539816
0.53783
0.536895
0.537332
0.537041
0.99613
0.945498
0.891132
0.842851
0.796681
0.751918
0.71032
0.673898
0.6435
0.618781
0.598719
0.582402
0.569248
0.558801
0.550621
0.544242
0.539214
0.535188
0.531932
0.529302
0.527347
0.526663
0.527814
0.527282
0.968467
0.916936
0.861917
0.815285
0.771173
0.728464
0.688731
0.653938
0.624924
0.601389
0.582353
0.56691
0.554481
0.544619
0.536897
0.530871
0.526122
0.52232
0.519234
0.51669
0.514778
0.514402
0.516433
0.515596
0.932101
0.880456
0.825058
0.781029
0.739869
0.699988
0.662751
0.630096
0.602874
0.58085
0.563106
0.548751
0.537219
0.52808
0.520926
0.515341
0.510939
0.507417
0.504541
0.502108
0.500252
0.500232
0.503278
0.502093
0.883967
0.834219
0.779158
0.73924
0.702278
0.666226
0.63226
0.602344
0.577387
0.557243
0.541078
0.528039
0.517587
0.509315
0.502844
0.497793
0.493811
0.490625
0.488002
0.485707
0.483923
0.4843
0.488468
0.486896
0.821094
0.776099
0.722466
0.688952
0.657903
0.626951
0.597187
0.570708
0.548547
0.530689
0.516411
0.504927
0.495741
0.488485
0.482816
0.478393
0.474907
0.472115
0.469789
0.467664
0.465974
0.466786
0.472165
0.47015
0.737419
0.703613
0.652875
0.629153
0.606331
0.582041
0.557565
0.535304
0.516518
0.501373
0.489296
0.47961
0.47188
0.465787
0.461037
0.457337
0.454421
0.452081
0.450098
0.44818
0.446613
0.447896
0.454555
0.452014
0.618708
0.611626
0.567763
0.558974
0.547378
0.531582
0.513595
0.496387
0.481567
0.46956
0.459995
0.45234
0.446244
0.441455
0.437734
0.434841
0.432561
0.430726
0.429126
0.427443
0.425998
0.427708
0.435692
0.432862
0.43314
0.483237
0.464115
0.478108
0.48133
0.476002
0.465725
0.454385
0.444094
0.435618
0.428846
0.42343
0.419125
0.415759
0.413161
0.411152
0.409566
0.408276
0.40709
0.405665
0.404337
0.406417
0.415695
0.412785
0.136679
0.324221
0.343197
0.387789
0.40936
0.416263
0.41474
0.409947
0.404645
0.400016
0.396263
0.393248
0.390855
0.389008
0.38761
0.386543
0.385699
0.384991
0.384249
0.383107
0.38191
0.384324
0.394834
0.391945
-0.716259
-0.775031
-0.854629
-0.899456
-0.931259
-1.08314
-0.725629
-0.784173
-0.860068
-0.905368
-0.91702
-1.01542
-0.73487
-0.793018
-0.866153
-0.914136
-0.912348
-0.985055
-0.744232
-0.802136
-0.872977
-0.923179
-0.914673
-0.961701
-0.754291
-0.811245
-0.880447
-0.929492
-0.918439
-0.938713
-0.763727
-0.820185
-0.886906
-0.932138
-0.919407
-0.917513
-0.771647
-0.82819
-0.89062
-0.931103
-0.918423
-0.894758
-0.777892
-0.833688
-0.890922
-0.926096
-0.91202
-0.872445
-0.78191
-0.836031
-0.887736
-0.916936
-0.899624
-0.849465
-0.783313
-0.835006
-0.881162
-0.903697
-0.88198
-0.824369
-0.781884
-0.830628
-0.871429
-0.886735
-0.859836
-0.7968
-0.777535
-0.823088
-0.858908
-0.866473
-0.833982
-0.766943
-0.770299
-0.81268
-0.843849
-0.843594
-0.805216
-0.735116
-0.760319
-0.800196
-0.826688
-0.818692
-0.77428
-0.701367
-0.748116
-0.786052
-0.807852
-0.792334
-0.741877
-0.666313
-0.734352
-0.770665
-0.787744
-0.765049
-0.70864
-0.630841
-0.719787
-0.75452
-0.766754
-0.737284
-0.675131
-0.595523
-0.705221
-0.738149
-0.745247
-0.709343
-0.64175
-0.560898
-0.691408
-0.722166
-0.723578
-0.681352
-0.608475
-0.52707
-0.67896
-0.707481
-0.702194
-0.653406
-0.574909
-0.493163
-0.668517
-0.695598
-0.681955
-0.625782
-0.540328
-0.456721
-0.661583
-0.687641
-0.664382
-0.59837
-0.502733
-0.411947
-0.659731
-0.682179
-0.649988
-0.568424
-0.457784
-0.351566
-0.66158
-0.673095
-0.6293
-0.530693
-0.403709
-0.285508
-0.325886
0.126191
0.211173
0.292262
0.333978
0.354005
0.361807
0.363949
0.363908
0.363321
0.362724
0.362209
0.361806
0.361538
0.361391
0.361311
0.361244
0.361147
0.360873
0.360043
0.359
0.361726
0.373377
0.370569
-0.52891
-0.0679291
0.0867307
0.199066
0.258861
0.291403
0.30838
0.317437
0.322677
0.326163
0.328752
0.330761
0.33237
0.333706
0.334834
0.335764
0.336496
0.337031
0.337247
0.336757
0.335899
0.338923
0.351595
0.348913
-0.597031
-0.208949
-0.016869
0.11414
0.187505
0.230673
0.255954
0.271479
0.28176
0.289184
0.294876
0.299356
0.302945
0.305871
0.308269
0.310215
0.311755
0.312934
0.313656
0.313534
0.312901
0.316211
0.329764
0.327251
-0.637798
-0.304626
-0.100324
0.0396206
0.12213
0.173519
0.205783
0.227028
0.241903
0.252984
0.261595
0.268425
0.273915
0.278379
0.282021
0.284968
0.287316
0.289143
0.290385
0.290658
0.290288
0.293874
0.308153
0.30587
-0.670216
-0.372563
-0.16779
-0.0248538
0.063538
0.120935
0.158762
0.184831
0.20372
0.218079
0.229353
0.238356
0.245629
0.251554
0.256391
0.260315
0.26346
0.265936
0.267705
0.2684
0.268333
0.27218
0.287018
0.285067
-0.69095
-0.421553
-0.22204
-0.0799921
0.0118435
0.0733832
0.115442
0.145408
0.16768
0.184881
0.198515
0.209481
0.218391
0.225681
0.231654
0.236522
0.240449
0.243572
0.245878
0.247018
0.24729
0.251375
0.266597
0.265149
-0.699246
-0.45548
-0.264684
-0.126201
-0.033063
0.0310087
0.0761073
0.10909
0.134107
0.153693
0.169363
0.182062
0.19245
0.201
0.208045
0.213824
0.218521
0.222294
0.225151
0.226764
0.227405
0.23168
0.247095
0.246443
-0.698093
-0.477074
-0.297057
-0.163986
-0.0714472
-0.0062223
0.0408675
0.0760547
0.103203
0.12472
0.142092
0.156287
0.16799
0.177693
0.185749
0.192414
0.197884
0.202325
0.205762
0.207887
0.208923
0.213299
0.228662
0.229325
-0.690122
-0.488698
-0.320471
-0.194069
-0.103679
-0.0384393
0.00970728
0.0463619
0.0750634
0.0980705
0.116818
0.132272
0.145124
0.155876
0.164891
0.172431
0.178699
0.183859
0.187947
0.190668
0.192147
0.19644
0.211323
0.214322
-0.676723
-0.492328
-0.336131
-0.217231
-0.130178
-0.0658537
-0.0174825
0.0199729
0.0496972
0.0737743
0.0935778
0.110054
0.123887
0.135582
0.145507
0.153927
0.161047
0.167025
0.17191
0.175435
0.177519
0.181356
0.194691
0.202473
-0.65876
-0.489133
-0.345481
-0.234212
-0.151381
-0.0887951
-0.0408462
-0.00319843
0.02704
0.0517917
0.0723416
0.0895999
0.104237
0.116754
0.127524
0.136822
0.144861
0.151809
0.157755
0.162518
0.165805
0.169224
0.179247
0.19648
-0.636195
-0.481164
-0.349223
-0.245817
-0.167654
-0.107544
-0.0606845
-0.0233673
0.00696068
0.0320282
0.0530275
0.0708239
0.0860656
0.0992457
0.110741
0.120843
0.129781
0.137752
0.144869
0.151013
0.156134
0.162462
0.175201
0.18007
-0.610368
-0.468602
-0.348024
-0.252822
-0.179506
-0.122455
-0.0772247
-0.0406997
-0.0106782
0.0143699
0.0355326
0.0536163
0.0692357
0.0828651
0.0948699
0.10553
0.115064
0.123632
0.131267
0.137737
0.143171
0.150748
0.165102
0.15865
-0.582256
-0.452261
-0.342626
-0.255689
-0.187529
-0.133892
-0.0907201
-0.0553907
-0.0260292
-0.00130389
0.019756
0.0378857
0.0536558
0.0675113
0.0797956
0.0907684
0.100625
0.109498
0.117376
0.123995
0.129604
0.137756
0.15264
0.14257
-0.552392
-0.432923
-0.333682
-0.254853
-0.192248
-0.142249
-0.101466
-0.0676627
-0.0392582
-0.0151168
0.00560706
0.0235689
0.0392879
0.0531751
0.0655485
0.0766481
0.0866533
0.0956886
0.103744
0.110574
0.116488
0.125136
0.140447
0.129653
-0.521222
-0.411246
-0.321818
-0.250887
-0.194027
-0.147901
-0.109766
-0.0777485
-0.0505395
-0.0271951
-0.00699924
0.0106181
0.0261209
0.0398837
0.0522005
0.0632948
0.0733392
0.0824672
0.0906821
0.097745
0.104018
0.113149
0.128885
0.118464
-0.489479
-0.387861
-0.307632
-0.244367
-0.193269
-0.151208
-0.115922
-0.0858877
-0.0600557
-0.0376711
-0.0181502
-0.00101246
0.0141475
0.0276674
0.039818
0.0508107
0.0608227
0.0699995
0.0783365
0.0856138
0.0922586
0.101835
0.117961
0.1085
-0.457923
-0.363466
-0.291749
-0.235861
-0.190461
-0.152554
-0.120248
-0.0923316
-0.0680017
-0.0466885
-0.0279426
-0.0113773
0.00335183
0.016544
0.0284474
0.0392654
0.049187
0.0583524
0.0667432
0.0741993
0.0811844
0.0911174
0.107563
0.0994606
-0.426883
-0.338702
-0.274827
-0.225971
-0.186115
-0.152353
-0.123078
-0.0973493
-0.0745898
-0.054408
-0.0364902
-0.0205469
-0.00629921
0.00651182
0.0181113
0.0286985
0.038465
0.0475358
0.0559023
0.0634699
0.0707046
0.0808528
0.09749
0.0910564
-0.395653
-0.313802
-0.257464
-0.215311
-0.180763
-0.151038
-0.124766
-0.10123
-0.0800524
-0.0610105
-0.0439262
-0.0286122
-0.0148596
-0.00245214
0.00881085
0.0191225
0.0286648
0.0375552
0.0458078
0.0533789
0.0607194
0.0708867
0.0874986
0.0829841
-0.362191
-0.288268
-0.240027
-0.20444
-0.174932
-0.14906
-0.125685
-0.104281
-0.084641
-0.0666947
-0.0504013
-0.0356828
-0.0224037
-0.0103916
0.00052813
0.0105353
0.0197968
0.0284285
0.0364663
0.0439038
0.0511724
0.0611018
0.0773509
0.0749319
-0.323565
-0.260698
-0.22248
-0.193736
-0.169099
-0.146868
-0.12622
-0.10682
-0.0886167
-0.0716781
-0.0560789
-0.0418739
-0.0290212
-0.0173715
-0.00677288
0.00292874
0.0118773
0.0201889
0.027921
0.0350909
0.0420942
0.0514692
0.0668686
0.0666017
-0.277613
-0.230396
-0.204797
-0.183432
-0.16363
-0.14486
-0.126735
-0.109158
-0.0922418
-0.0761788
-0.0611421
-0.0473385
-0.0348063
-0.0234602
-0.0131361
-0.00370226
0.00493029
0.0128884
0.0202549
0.0270602
0.0336308
0.0421211
0.0560402
0.0577627
-0.226419
-0.201181
-0.188523
-0.174315
-0.159036
-0.143439
-0.12757
-0.11158
-0.0957478
-0.0803979
-0.0658269
-0.0522426
-0.0399031
-0.0287736
-0.0186002
-0.0093412
-0.00100606
0.00659225
0.0135611
0.0199626
0.0260283
0.0334054
0.0451909
0.0483397
-0.164885
-0.158259
-0.161405
-0.166115
-0.175063
-0.181486
-0.16679
-0.160351
-0.165102
-0.171089
-0.180589
-0.190451
-0.170673
-0.163265
-0.169617
-0.176504
-0.186419
-0.196256
-0.173435
-0.16571
-0.173297
-0.180648
-0.190542
-0.199936
-0.172879
-0.167278
-0.175862
-0.183531
-0.193188
-0.202047
-0.170571
-0.168575
-0.177797
-0.185634
-0.194854
-0.203021
-0.170198
-0.170361
-0.179486
-0.187257
-0.195837
-0.203178
-0.171399
-0.172715
-0.181065
-0.188551
-0.196293
-0.202707
-0.172583
-0.175142
-0.182513
-0.189567
-0.196337
-0.201736
-0.173644
-0.177311
-0.183792
-0.190305
-0.196062
-0.200376
-0.174493
-0.179165
-0.184865
-0.190797
-0.195547
-0.198726
-0.175151
-0.180687
-0.185706
-0.191091
-0.194867
-0.196885
-0.175633
-0.181862
-0.186304
-0.191234
-0.194104
-0.194953
-0.175951
-0.182692
-0.186662
-0.191274
-0.193343
-0.193032
-0.176135
-0.183189
-0.186794
-0.191264
-0.192675
-0.19123
-0.176261
-0.183382
-0.186726
-0.191257
-0.192188
-0.189662
-0.17644
-0.183319
-0.186495
-0.191301
-0.191915
-0.188517
-0.176559
-0.183036
-0.186152
-0.191434
-0.19187
-0.188004
-0.175335
-0.182577
-0.18576
-0.191644
-0.192194
-0.18828
-0.172365
-0.182171
-0.185449
-0.191887
-0.193026
-0.189571
-0.171345
-0.182272
-0.185408
-0.192098
-0.194362
-0.192182
-0.173108
-0.183008
-0.18564
-0.192026
-0.195878
-0.196595
-0.17581
-0.183949
-0.185784
-0.190957
-0.196371
-0.204069
-0.177075
-0.184379
-0.185128
-0.188212
-0.194015
-0.21629
-0.179929
-0.183013
-0.177859
-0.168261
-0.156363
-0.143232
-0.129145
-0.114394
-0.0993576
-0.0844753
-0.0701654
-0.0567599
-0.0444401
-0.0332993
-0.0232921
-0.0142256
-0.00600621
0.00133597
0.00790178
0.0138694
0.0194366
0.0257074
0.034962
0.0388696
-0.183018
-0.182045
-0.176615
-0.168002
-0.157345
-0.145345
-0.132225
-0.118142
-0.103424
-0.0885812
-0.0743161
-0.0609403
-0.0484929
-0.0371452
-0.0270516
-0.0182391
-0.0103248
-0.00317802
0.00317893
0.00877568
0.0137614
0.0187572
0.0252877
0.0313661
-0.195009
-0.190424
-0.183485
-0.174313
-0.163412
-0.151247
-0.13807
-0.124019
-0.109165
-0.0941164
-0.0795519
-0.0656083
-0.0525557
-0.0408088
-0.0304552
-0.0213323
-0.0133194
-0.006496
-0.000674704
0.00443878
0.00891732
0.0130255
0.0178081
0.025248
-0.203349
-0.200416
-0.193879
-0.184804
-0.173743
-0.161086
-0.147294
-0.132542
-0.117342
-0.102209
-0.0871268
-0.0721888
-0.0581574
-0.0457389
-0.0349044
-0.0254585
-0.0173271
-0.0102978
-0.00414884
0.00122154
0.00579566
0.00989073
0.0133549
0.0183111
-0.207501
-0.207846
-0.203361
-0.195749
-0.185507
-0.173005
-0.158888
-0.143521
-0.127468
-0.111152
-0.0949934
-0.0796227
-0.0655225
-0.0528284
-0.0416609
-0.0319814
-0.0236894
-0.0166016
-0.0104731
-0.00497943
2.90721e-05
0.00517232
0.00923512
0.0143872
-0.209071
-0.211618
-0.209457
-0.203896
-0.195209
-0.183807
-0.170232
-0.155086
-0.138878
-0.122089
-0.105386
-0.0893557
-0.0743485
-0.0606683
-0.0485713
-0.0381072
-0.029262
-0.0219413
-0.0157914
-0.0103149
-0.00517666
0.000382852
0.00561633
0.0124259
-0.209073
-0.21241
-0.211767
-0.207875
-0.20086
-0.191009
-0.178782
-0.164729
-0.149305
-0.133014
-0.116519
-0.100414
-0.0850244
-0.0706173
-0.0575602
-0.0460248
-0.0359288
-0.0272176
-0.0197568
-0.0132157
-0.00726089
-0.00133541
0.00479446
0.0105767
-0.207979
-0.21116
-0.211076
-0.208159
-0.202446
-0.194108
-0.183477
-0.170963
-0.156949
-0.141896
-0.126359
-0.110782
-0.0954601
-0.0807209
-0.0669932
-0.05451
-0.043189
-0.0329523
-0.023849
-0.0158475
-0.00879946
-0.00246353
0.00328367
0.00655602
-0.206051
-0.208506
-0.208263
-0.205684
-0.200797
-0.193717
-0.184665
-0.173917
-0.161755
-0.148506
-0.134562
-0.120227
-0.105768
-0.0914558
-0.07759
-0.0644309
-0.0520706
-0.040466
-0.029616
-0.019644
-0.0106715
-0.00289803
0.00360066
0.00665998
-0.203478
-0.204832
-0.203937
-0.201215
-0.196752
-0.190662
-0.183111
-0.174289
-0.164366
-0.153496
-0.141948
-0.129889
-0.117488
-0.104853
-0.0921617
-0.0796409
-0.0674314
-0.0554256
-0.0433359
-0.031589
-0.0204332
-0.00923571
0.00388103
0.0148076
-0.200409
-0.200393
-0.198493
-0.195281
-0.19093
-0.185611
-0.179496
-0.172726
-0.165399
-0.15759
-0.149584
-0.141362
-0.132745
-0.12363
-0.113906
-0.1034
-0.0916466
-0.0780156
-0.0634041
-0.0485791
-0.0335453
-0.0172688
0.00287939
0.0204572
-0.196967
-0.195377
-0.192215
-0.188271
-0.183826
-0.179173
-0.174514
-0.16996
-0.165597
-0.161515
-0.157572
-0.153337
-0.148589
-0.142912
-0.135803
-0.126718
-0.115342
-0.102098
-0.087479
-0.0713858
-0.0542792
-0.0369633
-0.0217053
-0.0102163
-0.193249
-0.189934
-0.185352
-0.180563
-0.175891
-0.171672
-0.168193
-0.16568
-0.164151
-0.16364
-0.16372
-0.164005
-0.164198
-0.163116
-0.160258
-0.15499
-0.146945
-0.136095
-0.121899
-0.10438
-0.0844045
-0.0640878
-0.0475837
-0.0330759
-0.189332
-0.18419
-0.17804
-0.172132
-0.167019
-0.163176
-0.160905
-0.160439
-0.16184
-0.165017
-0.169499
-0.17466
-0.181191
-0.185427
-0.187745
-0.186956
-0.182158
-0.172582
-0.157861
-0.13813
-0.11418
-0.0880445
-0.0629767
-0.0377408
-0.185259
-0.178118
-0.170175
-0.163114
-0.157557
-0.154022
-0.152897
-0.154427
-0.158678
-0.165488
-0.174392
-0.184692
-0.195516
-0.20505
-0.211965
-0.215163
-0.212964
-0.204521
-0.189301
-0.167358
-0.139531
-0.10727
-0.0722261
-0.0336128
-0.181003
-0.171711
-0.16184
-0.153606
-0.147555
-0.144273
-0.144149
-0.147488
-0.154277
-0.164252
-0.176809
-0.190994
-0.205482
-0.218601
-0.228652
-0.233658
-0.232594
-0.224227
-0.207888
-0.183807
-0.152788
-0.115866
-0.0742804
-0.0278575
-0.176552
-0.164964
-0.153048
-0.143536
-0.13691
-0.133759
-0.134484
-0.139293
-0.148084
-0.160406
-0.175428
-0.191941
-0.208307
-0.22275
-0.233451
-0.238643
-0.236809
-0.226938
-0.208818
-0.18285
-0.149827
-0.110863
-0.0678432
-0.0214329
-0.171859
-0.157818
-0.143724
-0.132863
-0.125578
-0.122416
-0.123718
-0.129558
-0.139655
-0.153308
-0.169403
-0.18657
-0.203058
-0.216985
-0.226397
-0.229611
-0.225506
-0.213547
-0.19369
-0.166573
-0.133427
-0.0957088
-0.0558968
-0.0146184
-0.166851
-0.15025
-0.13391
-0.121687
-0.113681
-0.110354
-0.111934
-0.118307
-0.128936
-0.142863
-0.158906
-0.175409
-0.190418
-0.202015
-0.208615
-0.208954
-0.202159
-0.18801
-0.166837
-0.1398
-0.108606
-0.0749087
-0.0413572
-0.00784243
-0.161436
-0.142334
-0.123821
-0.110318
-0.101587
-0.0979709
-0.0995377
-0.105933
-0.116473
-0.129953
-0.144828
-0.159268
-0.17152
-0.179924
-0.183067
-0.180088
-0.17041
-0.154502
-0.133029
-0.107462
-0.080185
-0.0525754
-0.0256801
-0.000544455
-0.155507
-0.134262
-0.11387
-0.0992636
-0.0898819
-0.0858968
-0.0871985
-0.093346
-0.10321
-0.115267
-0.127935
-0.139579
-0.148399
-0.152927
-0.152083
-0.145817
-0.1337
-0.116006
-0.0962789
-0.0755481
-0.0536847
-0.0320197
-0.0114149
0.00725995
-0.148906
-0.126297
-0.104654
-0.0891894
-0.0792264
-0.074824
-0.0757638
-0.081153
-0.0895799
-0.0995575
-0.109423
-0.11747
-0.122315
-0.12285
-0.118152
-0.107807
-0.0947091
-0.0804081
-0.0640702
-0.046546
-0.0294135
-0.0132659
0.00275055
0.016201
-0.141821
-0.118889
-0.0967851
-0.0806875
-0.0701913
-0.0653186
-0.0655153
-0.0695823
-0.0760751
-0.0833001
-0.0896567
-0.0936659
-0.0943495
-0.0904163
-0.0823634
-0.0727727
-0.0615101
-0.0484456
-0.0343307
-0.020614
-0.00801322
0.00385987
0.0169432
0.0261564
-0.136626
-0.112912
-0.0908455
-0.0741645
-0.0630655
-0.0574309
-0.0564235
-0.0586637
-0.0625454
-0.0665118
-0.0691651
-0.0691814
-0.0652205
-0.058522
-0.0510284
-0.041937
-0.0309404
-0.0193521
-0.0081885
0.00197554
0.0110379
0.0200858
0.0317987
0.0374097
-0.230977
-0.235009
-0.223629
-0.200034
-0.158894
-0.0975627
-0.226552
-0.233071
-0.223356
-0.204771
-0.174521
-0.134765
-0.218546
-0.229897
-0.22234
-0.208413
-0.187088
-0.159763
-0.21842
-0.228341
-0.222742
-0.212927
-0.19736
-0.176708
-0.226159
-0.229172
-0.224928
-0.218384
-0.206076
-0.187913
-0.231329
-0.231236
-0.228263
-0.224178
-0.21377
-0.196573
-0.233358
-0.233582
-0.232158
-0.229876
-0.220668
-0.20395
-0.23531
-0.23597
-0.236176
-0.235289
-0.226838
-0.210434
-0.237808
-0.238281
-0.240073
-0.24033
-0.232297
-0.216185
-0.240476
-0.240381
-0.243697
-0.244943
-0.237009
-0.221271
-0.24292
-0.242161
-0.246946
-0.249102
-0.240905
-0.225732
-0.244896
-0.243547
-0.24976
-0.252829
-0.244047
-0.229492
-0.24627
-0.244509
-0.252116
-0.256148
-0.246503
-0.23257
-0.246971
-0.245072
-0.254049
-0.258955
-0.248323
-0.235344
-0.246975
-0.245198
-0.255629
-0.261421
-0.249571
-0.238379
-0.246275
-0.244833
-0.257
-0.263641
-0.250488
-0.241953
-0.24507
-0.243891
-0.258379
-0.265772
-0.25131
-0.244792
-0.246674
-0.242713
-0.259992
-0.267993
-0.252446
-0.249911
-0.251521
-0.242845
-0.261977
-0.270476
-0.254366
-0.259499
-0.254335
-0.243663
-0.263911
-0.273488
-0.257976
-0.275823
-0.253434
-0.243886
-0.265174
-0.277201
-0.263893
-0.300045
-0.248596
-0.242607
-0.265183
-0.281248
-0.272692
-0.329359
-0.240831
-0.240096
-0.264493
-0.284345
-0.285881
-0.362481
-0.237059
-0.238442
-0.264779
-0.288256
-0.305772
-0.452406
-0.136395
-0.108797
-0.0872325
-0.0697392
-0.057702
-0.0508617
-0.0481163
-0.047952
-0.0487943
-0.0492293
-0.0478665
-0.0438787
-0.0377487
-0.0308812
-0.0229044
-0.0133653
-0.00341923
0.00609557
0.0146896
0.0221998
0.0288538
0.0363261
0.0478517
0.0501466
-0.141945
-0.109623
-0.0862435
-0.0671771
-0.0536324
-0.0450477
-0.0400819
-0.0371153
-0.0346095
-0.0313087
-0.0263954
-0.0199503
-0.0131013
-0.00540578
0.00336296
0.0123331
0.0209144
0.0286877
0.0354374
0.0411933
0.0463358
0.0530259
0.0649952
0.064044
-0.150221
-0.113693
-0.0871311
-0.0657563
-0.0502317
-0.0394746
-0.0319042
-0.0258179
-0.019933
-0.0132519
-0.00583988
0.00180645
0.00987901
0.0185005
0.027132
0.0353687
0.0428832
0.0494186
0.0549294
0.0595488
0.0637524
0.0701451
0.0828533
0.0787502
-0.157296
-0.118616
-0.0886877
-0.0647919
-0.0469668
-0.0336717
-0.02315
-0.0138443
-0.00475685
0.00431822
0.0134816
0.0225619
0.031628
0.0404578
0.048814
0.0564664
0.0632087
0.06891
0.0736475
0.0775966
0.0812537
0.0876358
0.101174
0.0940827
-0.163294
-0.123477
-0.0901217
-0.0637818
-0.0433133
-0.0271696
-0.0135139
-0.00114878
0.0105292
0.0217395
0.0323586
0.0424472
0.0519705
0.0608449
0.0689554
0.0761822
0.082421
0.0876406
0.0919745
0.0955727
0.0989178
0.105416
0.119747
0.109955
-0.168635
-0.127707
-0.0911692
-0.0621939
-0.0388438
-0.0195435
-0.002749
0.0123896
0.0262677
0.0390338
0.0507477
0.061469
0.0712478
0.0801013
0.0880217
0.0949797
0.100947
0.105952
0.110126
0.113558
0.116708
0.12333
0.138362
0.126344
-0.173272
-0.130826
-0.0915359
-0.0595892
-0.0330569
-0.0104567
0.00930615
0.0268369
0.0424688
0.0564174
0.0688521
0.0799366
0.0898166
0.0986082
0.106387
0.113189
0.11904
0.123996
0.128154
0.131523
0.134542
0.141243
0.156858
0.143282
-0.177027
-0.132806
-0.0908018
-0.0555232
-0.0255245
0.000333239
0.0227626
0.0422653
0.0592302
0.0739917
0.086855
0.0980981
0.107965
0.116653
0.124302
0.131002
0.136817
0.141814
0.146039
0.149403
0.152322
0.159036
0.1751
0.160855
-0.179772
-0.133799
-0.0885618
-0.0495152
-0.0159056
0.0129954
0.0377046
0.0587546
0.0766652
0.0919221
0.104969
0.116197
0.125939
0.134456
0.141943
0.148532
0.154316
0.159372
0.163694
0.167085
0.169922
0.176569
0.192919
0.179227
-0.181409
-0.133628
-0.0843448
-0.0411672
-0.00398139
0.0276408
0.0542129
0.0764046
0.0949108
0.110382
0.123396
0.134446
0.143938
0.152189
0.159432
0.165836
0.171524
0.176583
0.180984
0.184446
0.187258
0.193734
0.210077
0.198711
-0.181854
-0.131812
-0.0777064
-0.0302063
0.0103791
0.0443551
0.0723804
0.0953363
0.114119
0.129547
0.142325
0.153036
0.162142
0.169998
0.176871
0.182959
0.188412
0.19334
0.19773
0.201317
0.20428
0.210393
0.225828
0.220044
-0.180993
-0.127856
-0.0682989
-0.0164362
0.0272893
0.06324
0.0923225
0.115685
0.134444
0.149587
0.161937
0.172148
0.180723
0.188042
0.194387
0.19997
0.20496
0.209486
0.213597
0.21716
0.220148
0.224497
0.235582
0.245358
-0.178686
-0.121449
-0.0558669
0.000334891
0.0468866
0.084421
0.11417
0.137592
0.156035
0.17066
0.182397
0.191957
0.19987
0.206522
0.212195
0.217092
0.221367
0.225136
0.228472
0.231336
0.233365
0.234293
0.23844
0.272745
-0.174696
-0.112339
-0.0401633
0.0203117
0.0693393
0.108049
0.138063
0.161189
0.179023
0.192895
0.203843
0.212621
0.219772
0.22568
0.23062
0.234784
0.238314
0.241332
0.243886
0.245662
0.246077
0.247606
0.261124
0.279422
-0.168551
-0.100136
-0.020888
0.043741
0.0948486
0.134296
0.164133
0.186589
0.203506
0.216376
0.226369
0.234251
0.240566
0.245694
0.249903
0.253379
0.256266
0.258687
0.260638
0.261676
0.261608
0.264949
0.282432
0.289836
-0.159897
-0.0844629
0.00236173
0.0709763
0.123637
0.163349
0.192476
0.21386
0.229525
0.241168
0.250024
0.256892
0.262304
0.266626
0.270117
0.272957
0.275291
0.277235
0.278747
0.279341
0.27907
0.283182
0.301802
0.304299
-0.149793
-0.0653038
0.0301854
0.102529
0.155909
0.195282
0.223262
0.243059
0.257103
0.267248
0.274789
0.280525
0.284959
0.288439
0.291205
0.293432
0.29525
0.296767
0.297906
0.298156
0.297674
0.301997
0.320887
0.321065
-0.136196
-0.0419324
0.0633258
0.138607
0.192304
0.230354
0.256452
0.274159
0.286196
0.294563
0.300597
0.305069
0.30844
0.311024
0.313044
0.314653
0.315967
0.317072
0.317861
0.317797
0.317087
0.321363
0.340032
0.338932
-0.119666
-0.00869649
0.101631
0.17991
0.232764
0.268593
0.292036
0.307085
0.316704
0.322999
0.327321
0.330388
0.332598
0.334224
0.335457
0.336426
0.337223
0.337906
0.33834
0.337967
0.337024
0.341119
0.359227
0.357403
-0.0970979
0.0338062
0.147289
0.22698
0.277537
0.310004
0.329921
0.341688
0.348452
0.352376
0.354777
0.356295
0.357242
0.357839
0.35824
0.358541
0.358801
0.359049
0.35912
0.358444
0.357283
0.361113
0.378385
0.376154
-0.0691483
0.0883705
0.201797
0.280471
0.326789
0.354486
0.369892
0.377711
0.381179
0.382439
0.382723
0.382552
0.38214
0.381642
0.381165
0.380766
0.38047
0.380269
0.379969
0.379003
0.377647
0.381162
0.397382
0.394957
-0.0379051
0.161501
0.267801
0.341085
0.380486
0.401724
0.411557
0.414761
0.414521
0.41286
0.410856
0.40888
0.407026
0.405376
0.403984
0.402864
0.401996
0.401337
0.400666
0.399427
0.39791
0.401079
0.416081
0.413614
0.00950664
0.26724
0.349014
0.408968
0.438037
0.451021
0.454274
0.452287
0.448009
0.443235
0.438823
0.434959
0.431607
0.428768
0.426441
0.424587
0.423144
0.422027
0.420993
0.419507
0.417863
0.420667
0.434322
0.431929
0.153864
0.416679
0.445934
0.482436
0.497878
0.501166
0.49712
0.489575
0.481078
0.473102
0.466232
0.460445
0.455574
0.451537
0.448272
0.44569
0.443681
0.442117
0.440736
0.43903
0.437296
0.43972
0.451936
0.449699
)
;

boundaryField
{
    rotor
    {
        type            zeroGradient;
    }
    freestream
    {
        type            freestreamPressure;
        freestreamValue uniform 0;
        supersonic      false;
        value           nonuniform List<scalar> 
96
(
0.408257
0.432463
0.455337
0.476289
0.495218
0.511976
0.526417
0.538131
0.54689
0.552535
0.554949
0.554079
0.549918
0.542509
0.531948
0.518383
0.502013
0.483087
0.461888
0.438733
0.413963
0.388111
0.36145
0.334309
0.307064
0.280097
0.253772
0.228429
0.204378
0.181887
0.161188
0.142488
0.126019
0.112228
0.102332
0.0880904
0.0724365
0.0604607
0.0508071
0.042664
0.0357075
0.0297313
0.0245653
0.0200674
0.0161235
0.0126502
0.00959778
0.00695269
0.00477733
0.00324409
0.00215309
0.00126307
0.000802956
0.00058862
0.000439751
0.000232156
0.000168772
0.000122866
2.75482e-05
-0.000330888
-0.00214638
-0.00335459
-0.00338331
-0.00286546
-0.00221408
-0.00153165
-0.000846803
-6.1661e-05
0.000878283
0.00212544
0.00375999
0.00593423
0.0088168
0.0125054
0.017078
0.0226277
0.029254
0.0370594
0.0461529
0.0566547
0.0687137
0.0825511
0.0986136
0.118112
0.140393
0.153265
0.168987
0.187826
0.208923
0.231582
0.255451
0.280238
0.30568
0.331507
0.357429
0.383127
)
;
    }
    frontAndBack
    {
        type            empty;
    }
}


// ************************************************************************* //
