/*--------------------------------*- C++ -*----------------------------------*\
  =========                 |
  \\      /  F ield         | OpenFOAM: The Open Source CFD Toolbox
   \\    /   O peration     | Website:  https://openfoam.org
    \\  /    A nd           | Version:  11
     \\/     M anipulation  |
\*---------------------------------------------------------------------------*/
FoamFile
{
    format      ascii;
    class       surfaceScalarField;
    location    "0.88";
    object      phi;
}
// * * * * * * * * * * * * * * * * * * * * * * * * * * * * * * * * * * * * * //

dimensions      [0 3 -1 0 0 0 0];

internalField   nonuniform List<scalar> 
5640
(
-2.28587e-07
2.28587e-07
-4.51188e-07
2.22601e-07
-5.32328e-07
8.11403e-08
-2.6902e-07
-2.63308e-07
1.78978e-06
-2.0588e-06
-4.58406e-06
6.37384e-06
-2.32061e-07
4.60648e-07
-3.72408e-07
3.62948e-07
-3.34049e-07
4.27805e-08
1.11119e-07
-7.08476e-07
1.22122e-06
-3.1689e-06
-6.8179e-06
3.45505e-06
-2.0506e-07
6.65708e-07
-2.88053e-07
4.4594e-07
-2.01321e-07
-4.39511e-08
2.20484e-07
-1.13028e-06
8.90501e-07
-3.83891e-06
-7.7608e-06
1.8334e-06
-1.71798e-07
8.37506e-07
-2.22533e-07
4.96676e-07
-1.35984e-07
-1.305e-07
1.71049e-07
-1.43731e-06
5.09762e-07
-4.17763e-06
-7.93665e-06
6.85608e-07
-1.37502e-07
9.75008e-07
-1.74301e-07
5.33475e-07
-1.18734e-07
-1.86068e-07
4.20341e-08
-1.59808e-06
9.59797e-08
-4.23157e-06
-7.60668e-06
-2.33984e-07
-1.055e-07
1.08051e-06
-1.4038e-07
5.68355e-07
-1.33112e-07
-1.93336e-07
-1.23102e-07
-1.60809e-06
-3.36586e-07
-4.01809e-06
-6.97381e-06
-9.69458e-07
-7.72815e-08
1.15779e-06
-1.1723e-07
6.08304e-07
-1.65634e-07
-1.44933e-07
-2.99418e-07
-1.47431e-06
-7.28598e-07
-3.58891e-06
-6.08933e-06
-1.61307e-06
-5.29384e-08
1.21073e-06
-1.00976e-07
6.56341e-07
-2.04751e-07
-4.11575e-08
-4.65632e-07
-1.21343e-06
-1.06988e-06
-2.98466e-06
-5.02026e-06
-2.13895e-06
-3.1786e-08
1.24251e-06
-8.77666e-08
7.12321e-07
-2.40653e-07
1.11729e-07
-6.06326e-07
-8.47753e-07
-1.34713e-06
-2.24386e-06
-3.81881e-06
-2.54858e-06
-1.26009e-08
1.25512e-06
-7.39879e-08
7.73708e-07
-2.65321e-07
3.03063e-07
-7.10287e-07
-4.02788e-07
-1.55082e-06
-1.40332e-06
-2.52564e-06
-2.84399e-06
5.31768e-09
1.2498e-06
-5.66438e-08
8.3567e-07
-2.72616e-07
5.19035e-07
-7.6955e-07
9.41463e-08
-1.67481e-06
-4.98066e-07
-1.17419e-06
-3.02626e-06
2.25604e-08
1.22724e-06
-3.35587e-08
8.91789e-07
-2.58328e-07
7.43804e-07
-7.78913e-07
6.14731e-07
-1.71521e-06
4.3823e-07
2.06418e-07
-3.09582e-06
4.06016e-08
1.18664e-06
-3.56758e-09
9.35958e-07
-2.202e-07
9.60437e-07
-7.35601e-07
1.13013e-06
-1.66981e-06
1.37244e-06
1.58911e-06
-3.0525e-06
5.92924e-08
1.12734e-06
3.36547e-08
9.61596e-07
-1.57945e-07
1.15204e-06
-6.39111e-07
1.6113e-06
-1.53781e-06
2.27114e-06
2.94684e-06
-2.89555e-06
7.82666e-08
1.04908e-06
7.69232e-08
9.62939e-07
-7.33097e-08
1.30227e-06
-4.91227e-07
2.02922e-06
-1.3198e-06
3.09971e-06
4.25065e-06
-2.6236e-06
9.67404e-08
9.52336e-07
1.242e-07
9.35479e-07
2.99449e-08
1.39653e-06
-2.9627e-07
2.35543e-06
-1.01801e-06
3.82145e-06
5.46716e-06
-2.23452e-06
1.1355e-07
8.38786e-07
1.72368e-07
8.76661e-07
1.45741e-07
1.42315e-06
-6.15547e-08
2.56273e-06
-6.36793e-07
4.39669e-06
6.55559e-06
-1.72522e-06
1.27266e-07
7.11521e-07
2.17483e-07
7.86444e-07
2.66195e-07
1.37444e-06
2.02568e-07
2.62635e-06
-1.82817e-07
4.78207e-06
7.46475e-06
-1.09198e-06
1.3636e-07
5.75161e-07
2.54995e-07
6.67808e-07
3.81172e-07
1.24826e-06
4.81012e-07
2.52651e-06
3.30497e-07
4.93259e-06
8.13642e-06
-3.41176e-07
1.39433e-07
4.35728e-07
2.80197e-07
5.27043e-07
4.78648e-07
1.04981e-06
7.53452e-07
2.25171e-06
8.84074e-07
4.80197e-06
8.46664e-06
5.53857e-07
1.35497e-07
3.00231e-07
2.88548e-07
3.73992e-07
5.44651e-07
7.9371e-07
9.91975e-07
1.80439e-06
1.44954e-06
4.3444e-06
8.28327e-06
1.6329e-06
1.24299e-07
1.75932e-07
2.76027e-07
2.22264e-07
5.63391e-07
5.06347e-07
1.15536e-06
1.21242e-06
1.97677e-06
3.523e-06
7.29854e-06
2.9615e-06
1.05483e-07
7.04488e-08
2.38179e-07
8.95684e-08
5.17185e-07
2.27341e-07
1.17975e-06
5.49847e-07
2.45178e-06
2.25097e-06
4.91438e-06
4.83594e-06
7.04488e-08
1.60017e-07
3.87358e-07
9.37206e-07
3.18818e-06
8.10256e-06
1.19889e-06
-2.74524e-05
3.26273e-05
-2.3903e-06
-3.25335e-05
3.61227e-05
-5.3362e-06
-3.44227e-05
3.73686e-05
-8.02457e-06
-3.48988e-05
3.75872e-05
-1.05608e-05
-3.50012e-05
3.75374e-05
-1.29778e-05
-3.50721e-05
3.74891e-05
-1.5299e-05
-3.52533e-05
3.75745e-05
-1.75468e-05
-3.556e-05
3.78079e-05
-1.97396e-05
-3.59563e-05
3.81491e-05
-2.18897e-05
-3.64022e-05
3.85523e-05
-2.40049e-05
-3.68672e-05
3.89824e-05
-2.6089e-05
-3.73348e-05
3.9419e-05
-2.81439e-05
-3.77972e-05
3.9852e-05
-3.01699e-05
-3.82495e-05
4.02756e-05
-3.2167e-05
-3.86883e-05
4.06854e-05
-3.41347e-05
-3.91101e-05
4.10778e-05
-3.60721e-05
-3.95127e-05
4.14502e-05
-3.79779e-05
-3.98951e-05
4.18009e-05
-3.98501e-05
-4.02583e-05
4.21306e-05
-4.16861e-05
-4.06054e-05
4.24414e-05
-4.3483e-05
-4.094e-05
4.27368e-05
-4.52378e-05
-4.12653e-05
4.30202e-05
-4.69485e-05
-4.15887e-05
4.32994e-05
-4.20041e-05
4.36756e-05
2.94011e-07
-2.42913e-05
-3.0071e-06
-2.92324e-05
-6.0443e-06
-3.13855e-05
-8.86945e-06
-3.20737e-05
-1.15338e-05
-3.23368e-05
-1.40678e-05
-3.25381e-05
-1.64999e-05
-3.28212e-05
-1.88561e-05
-3.32039e-05
-2.11557e-05
-3.36567e-05
-2.34115e-05
-3.41464e-05
-2.56309e-05
-3.46478e-05
-2.78174e-05
-3.51483e-05
-2.99726e-05
-3.56419e-05
-3.20971e-05
-3.6125e-05
-3.41908e-05
-3.65946e-05
-3.62532e-05
-3.70478e-05
-3.82833e-05
-3.74826e-05
-4.02799e-05
-3.78985e-05
-4.22408e-05
-3.82974e-05
-4.41635e-05
-3.86827e-05
-4.60456e-05
-3.9058e-05
-4.78849e-05
-3.9426e-05
-4.96808e-05
-3.97929e-05
-4.02441e-05
-7.42258e-07
-2.17157e-05
-3.78014e-06
-2.61945e-05
-6.82098e-06
-2.83447e-05
-9.7172e-06
-2.91775e-05
-1.24676e-05
-2.95864e-05
-1.50912e-05
-2.99144e-05
-1.76152e-05
-3.02972e-05
-2.00651e-05
-3.0754e-05
-2.24594e-05
-3.12623e-05
-2.481e-05
-3.17958e-05
-2.71233e-05
-3.23345e-05
-2.94026e-05
-3.2869e-05
-3.16492e-05
-3.33953e-05
-3.38635e-05
-3.39107e-05
-3.60454e-05
-3.44127e-05
-3.81944e-05
-3.48988e-05
-4.03095e-05
-3.53675e-05
-4.23891e-05
-3.58189e-05
-4.44313e-05
-3.62553e-05
-4.64335e-05
-3.66805e-05
-4.83936e-05
-3.70979e-05
-5.031e-05
-3.75096e-05
-5.21827e-05
-3.79202e-05
-3.84004e-05
-1.69376e-06
-1.93363e-05
-4.59726e-06
-2.32911e-05
-7.61402e-06
-2.53279e-05
-1.05426e-05
-2.62489e-05
-1.33487e-05
-2.67804e-05
-1.604e-05
-2.72231e-05
-1.86392e-05
-2.7698e-05
-2.1169e-05
-2.82242e-05
-2.3646e-05
-2.87854e-05
-2.60802e-05
-2.93616e-05
-2.84772e-05
-2.99375e-05
-3.08394e-05
-3.05068e-05
-3.31678e-05
-3.10669e-05
-3.54628e-05
-3.16157e-05
-3.77242e-05
-3.21513e-05
-3.99512e-05
-3.26718e-05
-4.21428e-05
-3.31759e-05
-4.42975e-05
-3.36643e-05
-4.6413e-05
-3.41397e-05
-4.84873e-05
-3.46061e-05
-5.05186e-05
-3.50666e-05
-5.25056e-05
-3.55226e-05
-5.44477e-05
-3.59781e-05
-3.64816e-05
-2.54849e-06
-1.70218e-05
-5.38777e-06
-2.04518e-05
-8.37852e-06
-2.23372e-05
-1.13199e-05
-2.33075e-05
-1.41622e-05
-2.39381e-05
-1.69047e-05
-2.44806e-05
-1.95651e-05
-2.50375e-05
-2.21624e-05
-2.56269e-05
-2.47104e-05
-2.62374e-05
-2.72173e-05
-2.68547e-05
-2.96874e-05
-2.74675e-05
-3.21223e-05
-2.80719e-05
-3.45229e-05
-2.86663e-05
-3.68891e-05
-2.92495e-05
-3.92207e-05
-2.98198e-05
-4.15167e-05
-3.03758e-05
-4.3776e-05
-3.09166e-05
-4.59968e-05
-3.14434e-05
-4.81774e-05
-3.19591e-05
-5.0316e-05
-3.24675e-05
-5.24115e-05
-3.29711e-05
-5.44631e-05
-3.34711e-05
-5.64698e-05
-3.39714e-05
-3.44981e-05
-3.30712e-06
-1.46841e-05
-6.11508e-06
-1.76438e-05
-9.08339e-06
-1.93689e-05
-1.20284e-05
-2.03625e-05
-1.48946e-05
-2.10719e-05
-1.76761e-05
-2.16991e-05
-2.0386e-05
-2.23276e-05
-2.30395e-05
-2.29734e-05
-2.56474e-05
-2.36295e-05
-2.82163e-05
-2.42858e-05
-3.0749e-05
-2.49348e-05
-3.32466e-05
-2.55742e-05
-3.57094e-05
-2.62035e-05
-3.81372e-05
-2.68217e-05
-4.05295e-05
-2.74276e-05
-4.28851e-05
-2.80201e-05
-4.52028e-05
-2.85989e-05
-4.74809e-05
-2.91653e-05
-4.97179e-05
-2.97222e-05
-5.19127e-05
-3.02727e-05
-5.4065e-05
-3.08189e-05
-5.61746e-05
-3.13614e-05
-5.82416e-05
-3.19045e-05
-3.24602e-05
-3.96621e-06
-1.2331e-05
-6.75708e-06
-1.48529e-05
-9.70779e-06
-1.64182e-05
-1.26523e-05
-1.7418e-05
-1.55347e-05
-1.81895e-05
-1.83459e-05
-1.88879e-05
-2.10953e-05
-1.95781e-05
-2.37947e-05
-2.0274e-05
-2.64521e-05
-2.09721e-05
-2.90725e-05
-2.16654e-05
-3.16576e-05
-2.23497e-05
-3.42077e-05
-2.30241e-05
-3.67229e-05
-2.36883e-05
-3.92026e-05
-2.4342e-05
-4.1646e-05
-2.49842e-05
-4.40519e-05
-2.56142e-05
-4.64189e-05
-2.6232e-05
-4.87454e-05
-2.68389e-05
-5.10302e-05
-2.74373e-05
-5.3273e-05
-2.80299e-05
-5.5474e-05
-2.86178e-05
-5.76337e-05
-2.92017e-05
-5.97532e-05
-2.9785e-05
-3.0375e-05
-4.51728e-06
-9.95266e-06
-7.30013e-06
-1.20701e-05
-1.02377e-05
-1.34805e-05
-1.31803e-05
-1.44755e-05
-1.60736e-05
-1.52962e-05
-1.8907e-05
-1.60544e-05
-2.16872e-05
-1.67979e-05
-2.44228e-05
-1.75384e-05
-2.71199e-05
-1.82751e-05
-2.97817e-05
-1.90036e-05
-3.24091e-05
-1.97223e-05
-3.50017e-05
-2.04314e-05
-3.75594e-05
-2.11307e-05
-4.00813e-05
-2.18201e-05
-4.25665e-05
-2.2499e-05
-4.50135e-05
-2.31672e-05
-4.74207e-05
-2.38247e-05
-4.97869e-05
-2.44727e-05
-5.21113e-05
-2.5113e-05
-5.43938e-05
-2.57473e-05
-5.66352e-05
-2.63765e-05
-5.88359e-05
-2.70009e-05
-6.09976e-05
-2.76233e-05
-2.82493e-05
-4.95456e-06
-7.54668e-06
-7.73538e-06
-9.28927e-06
-1.06639e-05
-1.0552e-05
-1.36041e-05
-1.15352e-05
-1.65046e-05
-1.23957e-05
-1.93541e-05
-1.3205e-05
-2.21569e-05
-1.39951e-05
-2.49198e-05
-1.47755e-05
-2.76471e-05
-1.55478e-05
-3.03405e-05
-1.63102e-05
-3.3e-05
-1.70628e-05
-3.56253e-05
-1.78061e-05
-3.82156e-05
-1.85404e-05
-4.07701e-05
-1.92656e-05
-4.32875e-05
-1.99816e-05
-4.57664e-05
-2.06883e-05
-4.82051e-05
-2.1386e-05
-5.06023e-05
-2.20755e-05
-5.29576e-05
-2.27576e-05
-5.52714e-05
-2.34335e-05
-5.75443e-05
-2.41036e-05
-5.97771e-05
-2.47682e-05
-6.1971e-05
-2.54293e-05
-2.60914e-05
-5.27508e-06
-5.11558e-06
-8.05739e-06
-6.50696e-06
-1.09802e-05
-7.62918e-06
-1.39183e-05
-8.59713e-06
-1.6823e-05
-9.49103e-06
-1.96829e-05
-1.03452e-05
-2.2501e-05
-1.11769e-05
-2.52825e-05
-1.1994e-05
-2.80305e-05
-1.27998e-05
-3.07457e-05
-1.3595e-05
-3.34277e-05
-1.43808e-05
-3.60756e-05
-1.51582e-05
-3.86888e-05
-1.59272e-05
-4.12662e-05
-1.66882e-05
-4.38064e-05
-1.74413e-05
-4.63078e-05
-1.81869e-05
-4.87688e-05
-1.89251e-05
-5.11882e-05
-1.96561e-05
-5.35658e-05
-2.03801e-05
-5.5902e-05
-2.10973e-05
-5.81977e-05
-2.1808e-05
-6.04534e-05
-2.25124e-05
-6.26704e-05
-2.32123e-05
-2.39103e-05
-5.47737e-06
-2.66447e-06
-8.26309e-06
-3.72125e-06
-1.11831e-05
-4.70913e-06
-1.41195e-05
-5.66078e-06
-1.70257e-05
-6.58478e-06
-1.98908e-05
-7.48014e-06
-2.2717e-05
-8.35071e-06
-2.55086e-05
-9.20236e-06
-2.82681e-05
-1.00404e-05
-3.09955e-05
-1.08676e-05
-3.369e-05
-1.16863e-05
-3.63508e-05
-1.24973e-05
-3.8977e-05
-1.33009e-05
-4.15676e-05
-1.40976e-05
-4.41211e-05
-1.48879e-05
-4.66356e-05
-1.56723e-05
-4.91097e-05
-1.6451e-05
-5.15424e-05
-1.72234e-05
-5.39333e-05
-1.79891e-05
-5.62832e-05
-1.87474e-05
-5.85926e-05
-1.94985e-05
-6.08622e-05
-2.02428e-05
-6.30933e-05
-2.09812e-05
-2.17151e-05
-5.56073e-06
-1.99563e-07
-8.35101e-06
-9.30965e-07
-1.12709e-05
-1.78925e-06
-1.42059e-05
-2.72575e-06
-1.71113e-05
-3.67943e-06
-1.99764e-05
-4.61504e-06
-2.28036e-05
-5.52344e-06
-2.5597e-05
-6.40895e-06
-2.83588e-05
-7.27866e-06
-3.10887e-05
-8.1377e-06
-3.3786e-05
-8.989e-06
-3.645e-05
-9.83338e-06
-3.90796e-05
-1.06713e-05
-4.16736e-05
-1.15035e-05
-4.42306e-05
-1.23309e-05
-4.67488e-05
-1.31541e-05
-4.92267e-05
-1.3973e-05
-5.16634e-05
-1.47867e-05
-5.40588e-05
-1.55937e-05
-5.64132e-05
-1.6393e-05
-5.87275e-05
-1.71843e-05
-6.10021e-05
-1.79682e-05
-6.3238e-05
-1.87452e-05
-1.95151e-05
-5.52485e-06
2.27279e-06
-8.32086e-06
1.86505e-06
-1.12433e-05
1.13315e-06
-1.41775e-05
2.08505e-07
-1.70796e-05
-7.7737e-07
-1.99397e-05
-1.7549e-06
-2.2761e-05
-2.70214e-06
-2.55479e-05
-3.62207e-06
-2.83028e-05
-4.52376e-06
-3.10258e-05
-5.41469e-06
-3.37163e-05
-6.29852e-06
-3.63735e-05
-7.17621e-06
-3.89964e-05
-8.04844e-06
-4.15838e-05
-8.91614e-06
-4.41344e-05
-9.78033e-06
-4.66467e-05
-1.06418e-05
-4.91192e-05
-1.15005e-05
-5.1551e-05
-1.23549e-05
-5.39418e-05
-1.3203e-05
-5.62919e-05
-1.40428e-05
-5.8602e-05
-1.48742e-05
-6.08724e-05
-1.56978e-05
-6.31042e-05
-1.65134e-05
-1.73193e-05
-5.3697e-06
4.74694e-06
-8.17327e-06
4.66862e-06
-1.11013e-05
4.06122e-06
-1.40356e-05
3.14281e-06
-1.69321e-05
2.11914e-06
-1.97824e-05
1.09531e-06
-2.25907e-05
1.06242e-07
-2.53628e-05
-8.50046e-07
-2.81017e-05
-1.78485e-06
-3.08081e-05
-2.70825e-06
-3.34817e-05
-3.62493e-06
-3.61218e-05
-4.5361e-06
-3.87277e-05
-5.44253e-06
-4.12986e-05
-6.34529e-06
-4.38332e-05
-7.2457e-06
-4.63302e-05
-8.14485e-06
-4.8788e-05
-9.04262e-06
-5.12058e-05
-9.9372e-06
-5.3583e-05
-1.08257e-05
-5.59198e-05
-1.1706e-05
-5.82167e-05
-1.25774e-05
-6.0474e-05
-1.34405e-05
-6.26925e-05
-1.42948e-05
-1.5137e-05
-5.09556e-06
7.21889e-06
-7.90982e-06
7.48289e-06
-1.08475e-05
6.99893e-06
-1.37831e-05
6.07833e-06
-1.66718e-05
5.00792e-06
-1.95071e-05
3.93052e-06
-2.22953e-05
2.89453e-06
-2.5044e-05
1.89857e-06
-2.77574e-05
9.28625e-07
-3.04373e-05
-2.83951e-08
-3.30838e-05
-9.78467e-07
-3.56967e-05
-1.92317e-06
-3.82757e-05
-2.86349e-06
-4.08202e-05
-3.80078e-06
-4.33292e-05
-4.73679e-06
-4.58012e-05
-5.67284e-06
-4.82349e-05
-6.60884e-06
-5.06294e-05
-7.54275e-06
-5.29839e-05
-8.47122e-06
-5.52985e-05
-9.39145e-06
-5.75731e-05
-1.03027e-05
-5.98083e-05
-1.12054e-05
-6.20046e-05
-1.20985e-05
-1.29773e-05
-4.70298e-06
9.68735e-06
-7.53322e-06
1.03131e-05
-1.04858e-05
9.95154e-06
-1.34242e-05
9.01669e-06
-1.6303e-05
7.88674e-06
-1.91179e-05
6.74538e-06
-2.18786e-05
5.65524e-06
-2.45949e-05
4.61491e-06
-2.72733e-05
3.60698e-06
-2.99165e-05
2.61486e-06
-3.25258e-05
1.63079e-06
-3.51015e-05
6.52542e-07
-3.76437e-05
-3.21323e-07
-4.01518e-05
-1.29263e-06
-4.26251e-05
-2.26348e-06
-4.50625e-05
-3.23549e-06
-4.74627e-05
-4.20867e-06
-4.98245e-05
-5.18088e-06
-5.21473e-05
-6.14849e-06
-5.44304e-05
-7.10827e-06
-5.6674e-05
-8.05908e-06
-5.88781e-05
-9.00137e-06
-6.10432e-05
-9.93341e-06
-1.08492e-05
-4.19337e-06
1.21555e-05
-7.04779e-06
1.31675e-05
-1.00221e-05
1.29258e-05
-1.29652e-05
1.19599e-05
-1.58317e-05
1.07532e-05
-1.86204e-05
9.53412e-06
-2.13456e-05
8.38045e-06
-2.40205e-05
7.28976e-06
-2.66538e-05
6.24031e-06
-2.92503e-05
5.21136e-06
-3.18121e-05
4.19264e-06
-3.43404e-05
3.18081e-06
-3.68355e-05
2.17374e-06
-3.92972e-05
1.16908e-06
-4.17249e-05
1.64283e-07
-4.41179e-05
-8.42541e-07
-4.64749e-05
-1.85164e-06
-4.87948e-05
-2.86096e-06
-5.10766e-05
-3.86675e-06
-5.33194e-05
-4.86544e-06
-5.55229e-05
-5.85552e-06
-5.76871e-05
-6.83722e-06
-5.98122e-05
-7.80829e-06
-8.76162e-06
-3.5698e-06
1.46333e-05
-6.46022e-06
1.6058e-05
-9.46482e-06
1.59305e-05
-1.24148e-05
1.49098e-05
-1.52657e-05
1.3604e-05
-1.80217e-05
1.22901e-05
-2.07028e-05
1.10616e-05
-2.33265e-05
9.91343e-06
-2.59045e-05
8.81834e-06
-2.84438e-05
7.75062e-06
-3.09477e-05
6.69656e-06
-3.34181e-05
5.65118e-06
-3.58557e-05
4.61141e-06
-3.82609e-05
3.57421e-06
-4.06332e-05
2.53658e-06
-4.2972e-05
1.49625e-06
-4.52763e-05
4.52673e-07
-4.75449e-05
-5.92356e-07
-4.97765e-05
-1.63515e-06
-5.197e-05
-2.67193e-06
-5.41247e-05
-3.70082e-06
-5.62402e-05
-4.72172e-06
-5.83166e-05
-5.73186e-06
-6.72313e-06
-2.83801e-06
1.71302e-05
-5.78066e-06
1.90006e-05
-8.82622e-06
1.8976e-05
-1.17844e-05
1.7868e-05
-1.46151e-05
1.64347e-05
-1.73304e-05
1.50055e-05
-1.99578e-05
1.36889e-05
-2.25198e-05
1.24755e-05
-2.50317e-05
1.13303e-05
-2.75029e-05
1.02218e-05
-2.99381e-05
9.1318e-06
-3.234e-05
8.05309e-06
-3.47099e-05
6.98132e-06
-3.70484e-05
5.91266e-06
-3.93553e-05
4.84352e-06
-4.16303e-05
3.7712e-06
-4.38723e-05
2.69476e-06
-4.60803e-05
1.61562e-06
-4.82527e-05
5.37216e-07
-5.0388e-05
-5.3663e-07
-5.24851e-05
-1.60371e-06
-5.45433e-05
-2.66352e-06
-5.65624e-05
-3.71273e-06
-4.74223e-06
-2.00373e-06
1.96878e-05
-5.02469e-06
2.20216e-05
-8.12377e-06
2.20751e-05
-1.10892e-05
2.08334e-05
-1.38923e-05
1.92378e-05
-1.65567e-05
1.76699e-05
-1.9119e-05
1.62511e-05
-2.16079e-05
1.49644e-05
-2.40423e-05
1.37647e-05
-2.64341e-05
1.26135e-05
-2.87896e-05
1.14873e-05
-3.11123e-05
1.03758e-05
-3.34041e-05
9.27308e-06
-3.56657e-05
8.1743e-06
-3.78975e-05
7.07524e-06
-4.0099e-05
5.97269e-06
-4.22694e-05
4.86523e-06
-4.44076e-05
3.75379e-06
-4.65118e-05
2.64138e-06
-4.85801e-05
1.53171e-06
-5.0611e-05
4.27193e-07
-5.26032e-05
-6.71297e-07
-5.45562e-05
-1.75976e-06
-2.82673e-06
-1.07022e-06
2.23909e-05
-4.21701e-06
2.51684e-05
-7.38329e-06
2.52414e-05
-1.03495e-05
2.37996e-05
-1.31124e-05
2.20007e-05
-1.57121e-05
2.02696e-05
-1.81957e-05
1.87348e-05
-2.05986e-05
1.73673e-05
-2.29434e-05
1.61094e-05
-2.52442e-05
1.49143e-05
-2.75088e-05
1.3752e-05
-2.97415e-05
1.26086e-05
-3.19447e-05
1.14763e-05
-3.41195e-05
1.03491e-05
-3.62662e-05
9.22199e-06
-3.83848e-05
8.09124e-06
-4.04744e-05
6.95486e-06
-4.25338e-05
5.81317e-06
-4.4561e-05
4.66862e-06
-4.65539e-05
3.52459e-06
-4.85102e-05
2.38354e-06
-5.0428e-05
1.2465e-06
-5.2305e-05
1.17204e-07
-9.82994e-07
4.73418e-08
2.5305e-05
-3.40394e-06
2.86196e-05
-6.64459e-06
2.8482e-05
-9.59143e-06
2.67465e-05
-1.22927e-05
2.4702e-05
-1.48088e-05
2.27857e-05
-1.71975e-05
2.11235e-05
-1.95e-05
1.96698e-05
-2.17421e-05
1.83516e-05
-2.39398e-05
1.7112e-05
-2.61022e-05
1.59143e-05
-2.82341e-05
1.47405e-05
-3.03383e-05
1.35805e-05
-3.24163e-05
1.2427e-05
-3.44684e-05
1.12741e-05
-3.64946e-05
1.01175e-05
-3.84942e-05
8.95448e-06
-4.04659e-05
7.78481e-06
-4.24074e-05
6.6102e-06
-4.43164e-05
5.43352e-06
-4.61899e-05
4.25705e-06
-4.80251e-05
3.08172e-06
-4.98189e-05
1.91097e-06
7.83012e-07
9.3462e-07
2.92064e-05
-2.70426e-06
3.22585e-05
-5.96551e-06
3.17433e-05
-8.84777e-06
2.96287e-05
-1.14522e-05
2.73064e-05
-1.38589e-05
2.51924e-05
-1.6133e-05
2.33976e-05
-1.83191e-05
2.18559e-05
-2.0445e-05
2.04775e-05
-2.25274e-05
1.91944e-05
-2.45761e-05
1.7963e-05
-2.65966e-05
1.6761e-05
-2.85917e-05
1.55757e-05
-3.0563e-05
1.43983e-05
-3.25111e-05
1.32222e-05
-3.44358e-05
1.20422e-05
-3.63365e-05
1.08551e-05
-3.82116e-05
9.65994e-06
-4.0059e-05
8.45765e-06
-4.1876e-05
7.25046e-06
-4.36592e-05
6.04031e-06
-4.54056e-05
4.82807e-06
-4.71116e-05
3.61702e-06
2.46154e-06
1.83975e-06
3.54692e-05
-2.2403e-06
3.63386e-05
-5.41944e-06
3.49224e-05
-8.15188e-06
3.23612e-05
-1.06071e-05
2.97617e-05
-1.28717e-05
2.74569e-05
-1.50088e-05
2.55347e-05
-1.70617e-05
2.39088e-05
-1.90574e-05
2.24732e-05
-2.10124e-05
2.11493e-05
-2.29365e-05
1.98871e-05
-2.48353e-05
1.86597e-05
-2.67116e-05
1.7452e-05
-2.8567e-05
1.62537e-05
-3.04019e-05
1.50572e-05
-3.22163e-05
1.38566e-05
-3.40095e-05
1.26482e-05
-3.57798e-05
1.14303e-05
-3.75252e-05
1.0203e-05
-3.92426e-05
8.9679e-06
-4.09288e-05
7.72644e-06
-4.258e-05
6.4793e-06
-4.41925e-05
5.22952e-06
4.04512e-06
1.24654e-06
-1.24654e-06
2.65429e-06
-1.40774e-06
3.61756e-06
-9.63274e-07
4.50153e-06
-8.83966e-07
4.47527e-06
2.62569e-08
3.12218e-06
1.3531e-06
1.56349e-06
-2.81003e-06
2.90789e-06
-2.75215e-06
3.85327e-06
-1.90865e-06
4.29789e-06
-1.32859e-06
3.47818e-06
8.45976e-07
6.10719e-06
4.93166e-07
1.56595e-06
-4.37598e-06
2.75139e-06
-3.93759e-06
3.53761e-06
-2.69488e-06
3.64985e-06
-1.44082e-06
2.50912e-06
1.98671e-06
9.01016e-06
-3.93854e-07
1.4676e-06
-5.84358e-06
2.48463e-06
-4.95462e-06
3.08341e-06
-3.29366e-06
2.89759e-06
-1.255e-06
1.54561e-06
3.33868e-06
1.17456e-05
-1.18985e-06
1.31744e-06
-7.16102e-06
2.16028e-06
-5.79745e-06
2.5633e-06
-3.69668e-06
2.15362e-06
-8.45324e-07
7.02474e-07
4.78983e-06
1.40785e-05
-1.63037e-06
1.14235e-06
-8.30337e-06
1.80626e-06
-6.46136e-06
2.03169e-06
-3.9221e-06
1.47878e-06
-2.92416e-07
7.94539e-09
6.26066e-06
1.59132e-05
-1.82682e-06
9.50166e-07
-9.25354e-06
1.45341e-06
-6.9646e-06
1.52404e-06
-3.99274e-06
9.0467e-07
3.26958e-07
-3.70185e-07
7.53552e-06
1.73835e-05
-1.84046e-06
7.53548e-07
-1.00071e-05
1.10773e-06
-7.31879e-06
1.05728e-06
-3.94229e-06
4.26049e-07
9.58188e-07
-6.5979e-07
8.62136e-06
1.8456e-05
-1.73226e-06
5.55153e-07
-1.05622e-05
7.75413e-07
-7.53905e-06
6.38265e-07
-3.80514e-06
4.29098e-08
1.55354e-06
-8.32005e-07
9.49627e-06
1.91536e-05
-1.52962e-06
3.57436e-07
-1.09197e-05
4.60645e-07
-7.64226e-06
2.68138e-07
-3.61263e-06
-2.60582e-07
2.08226e-06
-9.02232e-07
1.01379e-05
1.95063e-05
-1.25494e-06
1.62093e-07
-1.10818e-05
1.65481e-07
-7.64565e-06
-5.48408e-08
-3.39231e-06
-4.86776e-07
2.5142e-06
-8.92439e-07
1.05436e-05
1.95437e-05
-9.29842e-07
-3.03433e-08
-1.10514e-05
-1.09306e-07
-7.56669e-06
-3.32975e-07
-3.16864e-06
-6.53218e-07
2.83444e-06
-8.24453e-07
1.07148e-05
1.92935e-05
-5.74209e-07
-2.06873e-07
-1.08446e-05
-3.64629e-07
-7.40893e-06
-5.77383e-07
-2.95589e-06
-7.74876e-07
3.03193e-06
-7.18915e-07
1.06589e-05
1.87751e-05
-2.00599e-07
-3.79415e-07
-1.04651e-05
-6.04027e-07
-7.18432e-06
-7.95063e-07
-2.76485e-06
-8.66665e-07
3.10354e-06
-5.95672e-07
1.03879e-05
1.80168e-05
1.62677e-07
-5.44157e-07
-9.92098e-06
-8.30571e-07
-6.8979e-06
-9.94976e-07
-2.60045e-06
-9.43163e-07
3.05172e-06
-4.71761e-07
9.91646e-06
1.70426e-05
5.02462e-07
-7.00453e-07
-9.22053e-06
-1.04784e-06
-6.55052e-06
-1.1863e-06
-2.46198e-06
-1.01803e-06
2.88345e-06
-3.62208e-07
9.26064e-06
1.58669e-05
8.13465e-07
-8.47666e-07
-8.37286e-06
-1.25945e-06
-6.13874e-06
-1.37827e-06
-2.34316e-06
-1.10442e-06
2.6096e-06
-2.81615e-07
8.43784e-06
1.45088e-05
1.07648e-06
-9.8456e-07
-7.3883e-06
-1.46868e-06
-5.65462e-06
-1.58029e-06
-2.23154e-06
-1.2157e-06
2.245e-06
-2.44006e-07
7.46615e-06
1.29879e-05
1.27691e-06
-1.10882e-06
-6.27948e-06
-1.67804e-06
-5.08541e-06
-1.802e-06
-2.10758e-06
-1.36714e-06
1.81014e-06
-2.67373e-07
6.36638e-06
1.13229e-05
1.39759e-06
-1.21628e-06
-5.0632e-06
-1.88877e-06
-4.41292e-06
-2.05276e-06
-1.94359e-06
-1.57603e-06
1.33341e-06
-3.72134e-07
5.16249e-06
9.52472e-06
1.42606e-06
-1.30056e-06
-3.76264e-06
-2.09991e-06
-3.61357e-06
-2.3409e-06
-1.7026e-06
-1.86156e-06
8.54079e-07
-5.81823e-07
3.88275e-06
7.58286e-06
1.36004e-06
-1.34455e-06
-2.41809e-06
-2.31442e-06
-2.6437e-06
-2.67404e-06
-1.34298e-06
-2.24451e-06
4.24549e-07
-9.25611e-07
2.56385e-06
5.43324e-06
1.224e-06
-1.32661e-06
-1.09147e-06
-2.52134e-06
-1.44898e-06
-3.05059e-06
-8.13729e-07
-2.73485e-06
1.08812e-07
-1.41672e-06
1.24571e-06
2.93812e-06
1.07841e-06
-1.09147e-06
-2.54045e-06
-3.35418e-06
-3.24537e-06
-1.99965e-06
9.38462e-07
1.15339e-06
3.56689e-05
-2.29264e-06
3.97846e-05
-5.05483e-06
3.76846e-05
-7.51635e-06
3.48227e-05
-9.76254e-06
3.20078e-05
-1.18503e-05
2.95447e-05
-1.38278e-05
2.75122e-05
-1.5731e-05
2.5812e-05
-1.75833e-05
2.43256e-05
-1.93996e-05
2.29656e-05
-2.11889e-05
2.16764e-05
-2.29564e-05
2.04272e-05
-2.47048e-05
1.92004e-05
-2.64355e-05
1.79844e-05
-2.81488e-05
1.67705e-05
-2.98447e-05
1.55525e-05
-3.15224e-05
1.43258e-05
-3.31802e-05
1.30882e-05
-3.48161e-05
1.18389e-05
-3.64271e-05
1.05788e-05
-3.80095e-05
9.30886e-06
-3.95595e-05
8.02934e-06
-4.10728e-05
6.74277e-06
5.5271e-06
-4.99596e-07
3.66616e-05
-2.61531e-06
4.19003e-05
-4.79019e-06
3.98595e-05
-6.90978e-06
3.69423e-05
-8.9051e-06
3.40032e-05
-1.07888e-05
3.14283e-05
-1.2588e-05
2.93114e-05
-1.43275e-05
2.75515e-05
-1.6025e-05
2.60231e-05
-1.76927e-05
2.46333e-05
-1.93381e-05
2.33218e-05
-2.09658e-05
2.20549e-05
-2.25781e-05
2.08127e-05
-2.41762e-05
1.95824e-05
-2.57603e-05
1.83546e-05
-2.73301e-05
1.71223e-05
-2.88849e-05
1.58806e-05
-3.04232e-05
1.46265e-05
-3.19428e-05
1.33585e-05
-3.34407e-05
1.20767e-05
-3.49133e-05
1.07814e-05
-3.63563e-05
9.4724e-06
-3.77649e-05
8.15131e-06
6.90146e-06
-1.45199e-06
3.77198e-05
-2.83695e-06
4.32853e-05
-4.51495e-06
4.15375e-05
-6.28077e-06
3.87081e-05
-8.00921e-06
3.57316e-05
-9.67505e-06
3.30942e-05
-1.12843e-05
3.09206e-05
-1.285e-05
2.91172e-05
-1.43839e-05
2.75571e-05
-1.58949e-05
2.61442e-05
-1.73889e-05
2.48158e-05
-1.88695e-05
2.35355e-05
-2.03386e-05
2.22818e-05
-2.1797e-05
2.10409e-05
-2.3245e-05
1.98025e-05
-2.4682e-05
1.85594e-05
-2.61074e-05
1.7306e-05
-2.75196e-05
1.60387e-05
-2.89166e-05
1.47555e-05
-3.02955e-05
1.34556e-05
-3.16525e-05
1.21384e-05
-3.29832e-05
1.08031e-05
-3.42818e-05
9.44997e-06
8.16278e-06
-1.96265e-06
3.84926e-05
-2.87327e-06
4.41959e-05
-4.15322e-06
4.28174e-05
-5.58817e-06
4.01431e-05
-7.05228e-06
3.71957e-05
-8.49711e-06
3.4539e-05
-9.91101e-06
3.23345e-05
-1.1297e-05
3.05031e-05
-1.26612e-05
2.89214e-05
-1.40095e-05
2.74925e-05
-1.53461e-05
2.61524e-05
-1.66736e-05
2.4863e-05
-1.79936e-05
2.36018e-05
-1.93065e-05
2.23537e-05
-2.06123e-05
2.11083e-05
-2.19106e-05
1.98577e-05
-2.32006e-05
1.8596e-05
-2.44809e-05
1.73191e-05
-2.57497e-05
1.60243e-05
-2.7004e-05
1.47099e-05
-2.82402e-05
1.33746e-05
-2.94534e-05
1.20163e-05
-3.06373e-05
1.06339e-05
9.30627e-06
-2.19163e-06
3.90538e-05
-2.73502e-06
4.47393e-05
-3.6808e-06
4.37632e-05
-4.81313e-06
4.12754e-05
-6.0215e-06
3.84041e-05
-7.24715e-06
3.57647e-05
-8.46454e-06
3.35519e-05
-9.66791e-06
3.17065e-05
-1.08588e-05
3.01122e-05
-1.20402e-05
2.86739e-05
-1.32149e-05
2.73271e-05
-1.43849e-05
2.60329e-05
-1.55509e-05
2.47678e-05
-1.67133e-05
2.35162e-05
-1.7872e-05
2.2267e-05
-1.90264e-05
2.10121e-05
-2.01759e-05
1.97455e-05
-2.13192e-05
1.84624e-05
-2.24545e-05
1.71596e-05
-2.35792e-05
1.58346e-05
-2.46896e-05
1.4485e-05
-2.57807e-05
1.31075e-05
-2.68454e-05
1.16985e-05
1.03278e-05
-2.18893e-06
3.94159e-05
-2.44778e-06
4.49981e-05
-3.09505e-06
4.44105e-05
-3.94886e-06
4.21292e-05
-4.9121e-06
3.93673e-05
-5.92249e-06
3.67751e-05
-6.94418e-06
3.45736e-05
-7.96406e-06
3.27264e-05
-8.97958e-06
3.11278e-05
-9.99154e-06
2.96859e-05
-1.10015e-05
2.8337e-05
-1.20104e-05
2.70419e-05
-1.3019e-05
2.57764e-05
-1.40272e-05
2.45243e-05
-1.50346e-05
2.32745e-05
-1.6041e-05
2.20185e-05
-1.70454e-05
2.07499e-05
-1.8047e-05
1.9464e-05
-1.90442e-05
1.81568e-05
-2.00344e-05
1.68249e-05
-2.10144e-05
1.5465e-05
-2.19792e-05
1.40722e-05
-2.29204e-05
1.26397e-05
1.12237e-05
-1.99574e-06
3.95712e-05
-2.02501e-06
4.50274e-05
-2.39947e-06
4.47849e-05
-2.99514e-06
4.27249e-05
-3.7245e-06
4.00967e-05
-4.52419e-06
3.75747e-05
-5.35183e-06
3.54012e-05
-6.18844e-06
3.3563e-05
-7.0279e-06
3.19672e-05
-7.8691e-06
3.05271e-05
-8.71244e-06
2.91804e-05
-9.55844e-06
2.78879e-05
-1.04072e-05
2.66251e-05
-1.12584e-05
2.53756e-05
-1.21118e-05
2.41278e-05
-1.29666e-05
2.28733e-05
-1.38224e-05
2.16057e-05
-1.46782e-05
2.03198e-05
-1.55326e-05
1.90112e-05
-1.63839e-05
1.76761e-05
-1.72289e-05
1.631e-05
-1.8063e-05
1.49063e-05
-1.8877e-05
1.34537e-05
1.19908e-05
-1.65895e-06
3.94979e-05
-1.47986e-06
4.48483e-05
-1.60367e-06
4.49087e-05
-1.95678e-06
4.3078e-05
-2.46206e-06
4.0602e-05
-3.05556e-06
3.81682e-05
-3.69128e-06
3.6037e-05
-4.3455e-06
3.42172e-05
-5.00908e-06
3.26308e-05
-5.67922e-06
3.11972e-05
-6.3554e-06
2.98566e-05
-7.03754e-06
2.85701e-05
-7.72536e-06
2.73129e-05
-8.41836e-06
2.60686e-05
-9.1159e-06
2.48253e-05
-9.81726e-06
2.35747e-05
-1.05217e-05
2.23101e-05
-1.12283e-05
2.10264e-05
-1.19361e-05
1.9719e-05
-1.26435e-05
1.83836e-05
-1.33486e-05
1.70151e-05
-1.40474e-05
1.56051e-05
-1.47303e-05
1.41366e-05
1.26256e-05
-1.21637e-06
3.91847e-05
-8.31022e-07
4.4463e-05
-7.19278e-07
4.4797e-05
-8.41147e-07
4.31999e-05
-1.13e-06
4.08908e-05
-1.52133e-06
3.85596e-05
-1.96765e-06
3.64833e-05
-2.44072e-06
3.46903e-05
-2.92922e-06
3.31193e-05
-3.42886e-06
3.16969e-05
-3.93828e-06
3.0366e-05
-4.4569e-06
2.90887e-05
-4.98411e-06
2.78401e-05
-5.51912e-06
2.66036e-05
-6.06099e-06
2.53672e-05
-6.60867e-06
2.41224e-05
-7.16107e-06
2.28625e-05
-7.71702e-06
2.15823e-05
-8.27522e-06
2.02772e-05
-8.83428e-06
1.89426e-05
-9.39302e-06
1.75738e-05
-9.95013e-06
1.61622e-05
-1.04978e-05
1.46843e-05
1.31234e-05
-6.9557e-07
3.86253e-05
-9.53152e-08
4.38627e-05
2.41853e-07
4.44598e-05
3.42248e-07
4.30995e-05
2.6273e-07
4.09703e-05
6.8956e-08
3.87533e-05
-1.87274e-07
3.67395e-05
-4.80198e-07
3.49832e-05
-7.94828e-07
3.3434e-05
-1.12516e-06
3.20272e-05
-1.46908e-06
3.07099e-05
-1.82562e-06
2.94452e-05
-2.19394e-06
2.82084e-05
-2.57303e-06
2.69827e-05
-2.96169e-06
2.57559e-05
-3.3585e-06
2.45192e-05
-3.76179e-06
2.32658e-05
-4.16962e-06
2.19902e-05
-4.57971e-06
2.06873e-05
-4.98923e-06
1.93522e-05
-5.39536e-06
1.79799e-05
-5.79898e-06
1.65658e-05
-6.20699e-06
1.50923e-05
1.34765e-05
-1.0968e-07
3.78051e-05
7.00038e-07
4.3053e-05
1.26548e-06
4.38944e-05
1.58873e-06
4.27762e-05
1.71691e-06
4.08422e-05
1.7191e-06
3.87511e-05
1.64567e-06
3.6813e-05
1.53002e-06
3.50988e-05
1.38753e-06
3.35764e-05
1.22488e-06
3.21898e-05
1.04466e-06
3.08901e-05
8.48022e-07
2.96419e-05
6.35821e-07
2.84206e-05
4.08995e-07
2.72095e-05
1.68709e-07
2.59962e-05
-8.3562e-08
2.47715e-05
-3.4593e-07
2.35282e-05
-6.15936e-07
2.22602e-05
-8.90307e-07
2.09617e-05
-1.16422e-06
1.96261e-05
-1.42889e-06
1.82446e-05
-1.6677e-06
1.68047e-05
-1.8705e-06
1.52951e-05
1.37326e-05
4.88316e-07
3.67426e-05
1.54029e-06
4.2001e-05
2.33578e-06
4.30989e-05
2.88101e-06
4.2231e-05
3.21433e-06
4.05089e-05
3.41029e-06
3.85552e-05
3.52147e-06
3.67018e-05
3.58253e-06
3.50378e-05
3.61099e-06
3.3548e-05
3.6146e-06
3.21862e-05
3.59637e-06
3.09083e-05
3.55749e-06
2.96807e-05
3.49859e-06
2.84795e-05
3.42023e-06
2.72879e-05
3.3231e-06
2.60933e-05
3.20812e-06
2.48864e-05
3.0766e-06
2.36597e-05
2.9304e-06
2.24064e-05
2.77222e-06
2.11198e-05
2.60629e-06
1.9792e-05
2.4398e-06
1.84111e-05
2.28408e-06
1.69604e-05
2.14979e-06
1.54294e-05
1.38498e-05
1.11355e-06
3.54285e-05
2.40792e-06
4.07067e-05
3.439e-06
4.20678e-05
4.20476e-06
4.14652e-05
4.74733e-06
3.99663e-05
5.13786e-06
3.81647e-05
5.43312e-06
3.64065e-05
5.67029e-06
3.48006e-05
5.86894e-06
3.33493e-05
6.03789e-06
3.20173e-05
6.18062e-06
3.07656e-05
6.29832e-06
2.9563e-05
6.39139e-06
2.83865e-05
6.46003e-06
2.72192e-05
6.50456e-06
2.60488e-05
6.52564e-06
2.48654e-05
6.52462e-06
2.36607e-05
6.50396e-06
2.2427e-05
6.46785e-06
2.11559e-05
6.42272e-06
1.98371e-05
6.37683e-06
1.8457e-05
6.33774e-06
1.69995e-05
6.31392e-06
1.54532e-05
1.38119e-05
1.74028e-06
3.38509e-05
3.28414e-06
3.91628e-05
4.55738e-06
4.07946e-05
5.54803e-06
4.04746e-05
6.3048e-06
3.92095e-05
6.89232e-06
3.75771e-05
7.37257e-06
3.59263e-05
7.78604e-06
3.43872e-05
8.15473e-06
3.29806e-05
8.48887e-06
3.16831e-05
8.79251e-06