/*--------------------------------*- C++ -*----------------------------------*\
  =========                 |
  \\      /  F ield         | OpenFOAM: The Open Source CFD Toolbox
   \\    /   O peration     | Website:  https://openfoam.org
    \\  /    A nd           | Version:  11
     \\/     M anipulation  |
\*---------------------------------------------------------------------------*/
FoamFile
{
    format      ascii;
    class       volVectorField;
    location    "0.88";
    object      U;
}
// * * * * * * * * * * * * * * * * * * * * * * * * * * * * * * * * * * * * * //

dimensions      [0 1 -1 0 0 0 0];

internalField   nonuniform List<vector> 
2880
(
(-0.006592 -0.0542629 2.40577e-18)
(0.0078705 -0.0876307 0)
(0.0128626 -0.107005 1.70252e-19)
(-0.023513 -0.0811239 -9.83436e-19)
(0.00684767 -0.0444365 -1.20212e-18)
(-0.319297 0.335459 0)
(-0.00239067 -0.066434 0)
(0.00334472 -0.0879692 0)
(0.00250417 -0.0946097 1.35671e-18)
(-0.0316858 -0.0598613 -2.47846e-19)
(-0.0184447 0.0197512 1.05335e-19)
(-0.122975 0.247063 -8.86493e-19)
(-0.00382341 -0.0720242 0)
(-0.00134427 -0.0850573 1.30032e-18)
(-0.00394395 -0.082283 -1.00999e-18)
(-0.0273031 -0.0400189 1.10174e-19)
(-0.00986232 0.0561649 -2.7891e-19)
(-0.0224565 0.231353 8.24767e-19)
(-0.0071987 -0.0761619 0)
(-0.00477524 -0.0826204 -1.17156e-21)
(-0.00675106 -0.0733582 0)
(-0.0190847 -0.0278619 -8.0168e-19)
(0.00511039 0.0674262 0)
(0.0346527 0.210642 0)
(-0.0106932 -0.0792723 -3.31038e-20)
(-0.00704003 -0.0808297 -1.16319e-18)
(-0.00703665 -0.0678005 0)
(-0.00909799 -0.0226187 7.4772e-19)
(0.0226382 0.0650817 0)
(0.0734675 0.182043 4.07125e-19)
(-0.0133732 -0.0817787 3.28347e-20)
(-0.00828517 -0.079883 0)
(-0.00558772 -0.0654337 5.22511e-20)
(0.00154464 -0.0233567 6.51017e-19)
(0.0399829 0.053521 -7.22852e-20)
(0.102611 0.147713 -4.47734e-19)
(-0.0148422 -0.0839618 0)
(-0.00865367 -0.079885 0)
(-0.00297148 -0.0659513 -4.95217e-20)
(0.0120769 -0.029048 -6.25062e-19)
(0.0562256 0.0353169 0)
(0.125767 0.110115 0)
(-0.0150455 -0.085876 6.48613e-20)
(-0.00828652 -0.0807773 -5.42128e-24)
(0.000355351 -0.0689375 3.56914e-19)
(0.0220114 -0.0387345 0)
(0.0709275 0.0125408 0)
(0.144469 0.0701943 5.83016e-20)
(-0.0141118 -0.0874435 0)
(-0.00733748 -0.0824193 0)
(0.00400305 -0.0739176 -3.70895e-19)
(0.031013 -0.0515109 3.09269e-19)
(0.0838119 -0.013375 6.57554e-20)
(0.159745 0.0288386 -6.03596e-20)
(-0.0122805 -0.0885518 0)
(-0.00599617 -0.0845916 0)
(0.00763508 -0.080399 0)
(0.0388259 -0.0665518 -3.04427e-19)
(0.0947288 -0.04141 0)
(0.172261 -0.0133074 0)
(-0.00984554 -0.0890913 0)
(-0.00445088 -0.0870616 -5.99962e-20)
(0.0109692 -0.0878973 0)
(0.0452506 -0.0831211 0)
(0.103593 -0.0707999 -1.59777e-20)
(0.182416 -0.0558597 1.47686e-20)
(-0.00709217 -0.0889949 0)
(-0.00287009 -0.0895848 5.98138e-20)
(0.013784 -0.0959459 0)
(0.0501352 -0.100561 0)
(0.110337 -0.100949 0)
(0.190422 -0.0986195 -2.87777e-20)
(-0.00425756 -0.0882092 0)
(-0.00138487 -0.0919364 7.43322e-21)
(0.0159262 -0.104097 -5.54294e-21)
(0.0533692 -0.118267 0)
(0.114894 -0.13136 0)
(0.196351 -0.141497 2.87888e-20)
(-0.00151511 -0.0866936 -1.0187e-18)
(-7.44982e-05 -0.0939127 0)
(0.0173227 -0.111913 0)
(0.0548812 -0.135652 0)
(0.117189 -0.16157 0)
(0.200161 -0.184441 -2.27661e-19)
(0.00101956 -0.0844292 1.02074e-18)
(0.00104359 -0.0953139 4.85859e-19)
(0.0179851 -0.118956 -3.57709e-19)
(0.0546418 -0.152117 0)
(0.117135 -0.191089 0)
(0.201684 -0.2274 2.28856e-19)
(0.00330083 -0.0814185 1.02192e-18)
(0.00201861 -0.0959433 -4.94594e-19)
(0.0180079 -0.124769 3.6449e-19)
(0.0526713 -0.167007 0)
(0.114638 -0.219339 -2.57838e-19)
(0.200615 -0.270261 -2.81851e-19)
(0.00534918 -0.0776748 -1.05821e-18)
(0.00296003 -0.0956064 1.04349e-18)
(0.0175639 -0.128873 4.62374e-20)
(0.0490469 -0.179584 -7.32145e-19)
(0.109601 -0.245569 3.29266e-19)
(0.196444 -0.312773 3.39255e-19)
(0.00724047 -0.073224 -3.22111e-20)
(0.00401975 -0.0941174 -1.04465e-18)
(0.0168976 -0.130764 0)
(0.0439073 -0.188998 6.36558e-19)
(0.10195 -0.268751 5.33938e-19)
(0.188398 -0.354542 0)
(0.0090868 -0.0681012 -9.72459e-20)
(0.00537343 -0.0913151 -3.36459e-20)
(0.0163327 -0.129954 5.07075e-20)
(0.0374647 -0.194289 0)
(0.0916856 -0.287505 1.33362e-19)
(0.175358 -0.395007 4.55415e-19)
(0.0110015 -0.062355 0)
(0.00719884 -0.0870858 0)
(0.0162343 -0.125962 1.06737e-19)
(0.0300325 -0.194425 -7.92611e-19)
(0.0789393 -0.299905 -1.01333e-18)
(0.155374 -0.432881 -6.07359e-19)
(0.0130527 -0.0560717 0)
(0.00967726 -0.0814131 0)
(0.0171074 -0.118451 -1.04956e-18)
(0.0221443 -0.188403 1.51675e-18)
(0.0643456 -0.302876 6.91645e-19)
(0.124285 -0.4657 -1.11502e-19)
(0.0153139 -0.0495506 -2.08865e-18)
(0.0130112 -0.0743922 -1.40169e-18)
(0.0196804 -0.10727 2.06439e-18)
(0.0149045 -0.175345 -1.66702e-18)
(0.0501985 -0.291596 -8.45908e-19)
(0.0731093 -0.492691 7.12923e-19)
(0.0180532 -0.0431536 4.49091e-18)
(0.0174971 -0.0659649 1.5241e-18)
(0.0251891 -0.0922126 -2.17975e-18)
(0.0104279 -0.154113 8.1508e-19)
(0.0419371 -0.258842 7.64765e-19)
(-0.0224451 -0.521731 -6.28874e-19)
(0.0224189 -0.0353824 -4.70807e-18)
(0.0245212 -0.0546739 0)
(0.0351772 -0.0706321 1.2929e-18)
(0.0143985 -0.125943 -1.05592e-18)
(0.0642747 -0.200499 0)
(-0.214956 -0.632496 0)
(0.287507 0.754066 0)
(0.632761 0.604079 -3.90196e-19)
(0.75393 0.534411 2.26458e-19)
(0.833227 0.451117 -1.36922e-19)
(0.881236 0.382011 -1.26303e-19)
(0.914552 0.325183 1.16058e-19)
(0.939807 0.280363 2.04463e-19)
(0.96028 0.245243 1.82444e-19)
(0.977267 0.217137 0)
(0.991297 0.193859 -1.49355e-19)
(1.00267 0.173829 1.32228e-19)
(1.01166 0.156075 0)
(1.01851 0.140024 0)
(1.02344 0.125267 0)
(1.02664 0.11149 -1.08112e-19)
(1.02823 0.0984411 2.01602e-19)
(1.02833 0.0859232 -9.86206e-20)
(1.02702 0.0738062 -9.49852e-20)
(1.02442 0.0620147 -2.71556e-19)
(1.02077 0.0504549 1.74732e-19)
(1.01631 0.0390462 0)
(1.01047 0.0284338 3.3416e-19)
(1.00087 0.0210144 -6.40773e-19)
(0.991287 0.0174223 2.21863e-19)
(0.257822 0.601646 9.2021e-20)
(0.552342 0.542741 -4.38956e-19)
(0.6904 0.489259 4.49216e-19)
(0.780834 0.416002 -7.78907e-20)
(0.838142 0.352547 0)
(0.878569 0.300202 0)
(0.909223 0.259002 2.17175e-19)
(0.933806 0.226733 -3.88907e-19)
(0.95399 0.200858 0)
(0.970602 0.179358 0)
(0.984145 0.160792 -2.18214e-21)
(0.995025 0.1443 2.276e-21)
(1.00357 0.129372 1.25265e-19)
(1.01007 0.115634 0)
(1.01473 0.102793 1.08147e-19)
(1.01772 0.09061 1.06588e-19)
(1.01916 0.0789019 9.77628e-20)
(1.01917 0.0675529 -9.95333e-20)
(1.0179 0.0565104 -9.53417e-20)
(1.01557 0.0457169 5.45475e-19)
(1.01243 0.035126 -3.53113e-19)
(1.00793 0.0252706 0)
(0.999943 0.0180512 -2.48384e-19)
(0.991971 0.0142165 5.77408e-19)
(0.251205 0.499646 0)
(0.500092 0.475602 -1.54372e-19)
(0.640555 0.434584 -2.60538e-19)
(0.73631 0.373097 0)
(0.800186 0.317396 -3.09348e-19)
(0.846274 0.270956 0)
(0.88145 0.234266 -1.24857e-19)
(0.909573 0.205416 3.07678e-19)
(0.932569 0.182173 -5.95631e-21)
(0.951494 0.162765 -1.6731e-19)
(0.967016 0.145929 -4.48676e-21)
(0.97964 0.130936 -1.40182e-19)
(0.989768 0.117342 -1.24981e-19)
(0.997724 0.104816 3.12921e-21)
(1.00376 0.0930886 2.35662e-21)
(1.00806 0.081941 4.37207e-19)
(1.01077 0.0712056 -1.32014e-21)
(1.01204 0.0607869 -1.02285e-21)
(1.01201 0.0506562 -1.95812e-19)
(1.01093 0.0407892 0)
(1.009 0.0311645 0)
(1.00574 0.0221975 -4.49605e-19)
(0.99929 0.0153223 2.56562e-19)
(0.992827 0.0113746 7.72526e-20)
(0.249004 0.409805 0)
(0.465622 0.405755 -1.50095e-19)
(0.602465 0.375282 5.30098e-19)
(0.699903 0.32537 0)
(0.767949 0.278249 3.07498e-19)
(0.8182 0.23843 -1.36259e-19)
(0.856933 0.206752 3.62266e-19)
(0.887957 0.181682 -2.0905e-19)
(0.913325 0.161358 0)
(0.934251 0.144288 0)
(0.951519 0.129406 1.5276e-19)
(0.965703 0.116117 0)
(0.977256 0.104047 -1.31172e-19)
(0.986538 0.092907 0)
(0.993824 0.0824581 0)
(0.999327 0.072503 1.1458e-19)
(1.00322 0.0628953 0)
(1.00564 0.0535616 1.05994e-19)
(1.00677 0.0444967 0)
(1.00683 0.035703 2.94252e-19)
(1.00602 0.0271779 -1.89525e-19)
(1.00389 0.0192361 -2.795e-19)
(0.998916 0.0129108 7.97155e-19)
(0.993698 0.00884888 -6.23496e-19)
(0.251973 0.331423 6.18885e-19)
(0.442956 0.336983 1.07721e-18)
(0.573994 0.314639 2.32918e-20)
(0.671031 0.27515 0)
(0.741427 0.236573 -1.7733e-19)
(0.794532 0.203547 -4.44901e-19)
(0.835913 0.177066 0)
(0.869208 0.155954 0)
(0.896499 0.138726 0)
(0.919092 0.124171 0)
(0.93785 0.111422 0)
(0.953384 0.100009 0)
(0.966183 0.0896247 0)
(0.976634 0.0800245 1.30473e-19)
(0.985031 0.0710016 0)
(0.991606 0.0623837 2.94926e-21)
(0.996544 0.0540484 2.22824e-19)
(1.00001 0.0459445 -3.22621e-19)
(1.00217 0.038086 -1.05315e-19)
(1.00325 0.0304938 -9.93643e-20)
(1.00343 0.0231749 9.63697e-20)
(1.00231 0.0163561 -2.84429e-19)
(0.998748 0.0107486 -9.05257e-20)
(0.994647 0.00665526 8.35391e-20)
(0.257572 0.260181 -8.32053e-19)
(0.428323 0.270167 -5.81713e-19)
(0.553328 0.254256 -4.41088e-19)
(0.648857 0.223938 0)
(0.720325 0.193462 3.37855e-19)
(0.775233 0.167072 4.40289e-19)
(0.818475 0.145756 -1.33641e-19)
(0.853466 0.128647 -1.15115e-19)
(0.882251 0.114606 -3.04514e-21)
(0.906179 0.102682 -9.1949e-20)
(0.926161 0.0921964 -8.30971e-20)
(0.94282 0.0827949 7.64705e-20)
(0.956671 0.0742305 -6.84048e-20)
(0.968116 0.0663011 6.94511e-20)
(0.977464 0.0588328 0)
(0.984961 0.0516813 -1.17991e-19)
(0.990804 0.0447485 -5.78683e-20)
(0.995165 0.0380025 0)
(0.998217 0.0314692 1.59509e-19)
(1.00017 0.0251767 -5.20526e-20)
(1.00119 0.0191312 9.86062e-20)
(1.00098 0.0134837 -1.47044e-19)
(0.998716 0.00871469 2.34889e-19)
(0.995703 0.00481401 -2.89568e-19)
(0.264355 0.194007 6.84052e-20)
(0.419657 0.205596 -2.7552e-19)
(0.539045 0.194939 5.28706e-20)
(0.632551 0.172655 -2.03343e-19)
(0.704236 0.149683 1.77317e-19)
(0.760148 0.129604 -7.90071e-20)
(0.804606 0.113294 0)
(0.84079 0.100144 1.14483e-19)
(0.870678 0.0893169 6.36117e-22)
(0.895626 0.0800879 1.84447e-19)
(0.916565 0.0719582 -2.2953e-21)
(0.93412 0.0646699 7.62686e-20)
(0.948819 0.0580302 -2.16066e-19)
(0.961071 0.0518776 -6.667e-20)
(0.971199 0.0460714 0)
(0.979457 0.040496 0)
(0.986052 0.0350765 5.80008e-20)
(0.991158 0.0297954 -2.25152e-19)
(0.994949 0.0246814 3.2722e-19)
(0.997623 0.0197601 -1.58838e-19)
(0.999331 0.0150296 -5.11765e-20)
(0.999885 0.0105717 2.46037e-19)
(0.998742 0.00669095 -2.38561e-19)
(0.996826 0.00335784 2.10213e-19)
(0.271762 0.131865 -4.52114e-20)
(0.415512 0.143347 5.44875e-19)
(0.530013 0.137044 0)
(0.621368 0.121828 -1.08153e-19)
(0.692739 0.105747 -9.29364e-20)
(0.749075 0.0915934 -1.57472e-19)
(0.794236 0.0800736 -1.36108e-19)
(0.831186 0.0707867 1.18565e-19)
(0.86183 0.0631559 -2.6643e-21)
(0.887505 0.0566498 -9.52662e-20)
(0.909141 0.0509348 0)
(0.927362 0.0458312 -7.87345e-20)
(0.942698 0.0411935 0)
(0.955567 0.0368984 0)
(0.966296 0.0328383 1.28843e-19)
(0.975146 0.0289263 -1.86789e-19)
(0.982329 0.0251082 5.98097e-20)
(0.988022 0.0213745 0)
(0.992394 0.0177482 5.49801e-20)
(0.99563 0.0142471 0)
(0.997877 0.0108619 5.1225e-20)
(0.999047 0.00762678 -1.99819e-19)
(0.998817 0.00472626 3.87059e-19)
(0.997856 0.00220125 -1.74073e-19)
(0.279455 0.0728158 3.11858e-19)
(0.41484 0.0832504 -2.06865e-19)
(0.525352 0.0806429 -6.19267e-20)
(0.614685 0.0717159 2.08313e-19)
(0.68545 0.0619755 0)
(0.741805 0.0533721 1.5678e-19)
(0.78727 0.0464153 1.35478e-19)
(0.824628 0.0408743 -1.18043e-19)
(0.855721 0.0363925 1.04325e-19)
(0.881855 0.0326159 4.73484e-20)
(0.903939 0.029349 0)
(0.922597 0.0264747 7.8587e-20)
(0.938361 0.0238906 0)
(0.95165 0.0215093 0)
(0.962794 0.019256 9.73863e-20)
(0.972059 0.0170717 -1.88349e-19)
(0.97966 0.0149201 -5.88652e-20)
(0.985774 0.0127939 1.45593e-19)
(0.990564 0.0107057 0)
(0.994205 0.00866276 0)
(0.99684 0.00665327 -1.04171e-19)
(0.998463 0.00468595 1.0085e-19)
(0.998931 0.00286663 0)
(0.998711 0.00126885 1.73477e-19)
(0.287218 0.0160284 0)
(0.416913 0.024968 0)
(0.524413 0.0256171 -1.21212e-19)
(0.61202 0.0224005 5.14756e-20)
(0.682053 0.0185539 -4.73954e-20)
(0.738153 0.0151794 0)
(0.783616 0.0125807 0)
(0.821085 0.0106678 -5.98332e-20)
(0.852352 0.00927707 0)
(0.87869 0.00822224 -4.80616e-20)
(0.900983 0.00741558 -8.64554e-20)
(0.919855 0.00679246 4.03112e-20)
(0.935836 0.00629017 0)
(0.949346 0.00585613 0)
(0.960716 0.00544779 6.58442e-20)
(0.970215 0.00503293 -3.15451e-20)
(0.978056 0.0045904 0)
(0.984416 0.00411059 -5.83523e-20)
(0.989456 0.00359166 0)
(0.99334 0.00303006 0)
(0.996211 0.00241497 2.62433e-20)
(0.998126 0.00174763 -1.01278e-19)
(0.999071 0.00108948 9.80478e-20)
(0.99936 0.000512199 2.19936e-20)
(0.294919 -0.0392161 0)
(0.421261 -0.0319235 0)
(0.526755 -0.0282655 1.51305e-19)
(0.613027 -0.0261524 -2.65006e-20)
(0.68231 -0.0244226 -2.3039e-20)
(0.737972 -0.0228104 0)
(0.783191 -0.0212131 0)
(0.820519 -0.0195984 3.04457e-20)
(0.851708 -0.0179524 2.70395e-20)
(0.878009 -0.0163047 2.40318e-20)
(0.900281 -0.0146557 6.76926e-22)
(0.919148 -0.0130248 3.00988e-20)
(0.935138 -0.0114378 0)
(0.948671 -0.00991317 0)
(0.960076 -0.0084611 -1.63393e-22)
(0.969621 -0.00708754 -3.16448e-20)
(0.977519 -0.00580099 3.05027e-20)
(0.983947 -0.00461667 2.92349e-20)
(0.989066 -0.00355233 0)
(0.993033 -0.00262209 6.79668e-21)
(0.995989 -0.00183336 -2.62428e-20)
(0.998031 -0.00118059 6.33403e-21)
(0.999225 -0.000628547 0)
(0.999779 -0.000125103 -2.19793e-20)
(0.302493 -0.0935646 -3.89023e-20)
(0.427618 -0.0878894 0)
(0.532118 -0.0813012 -6.03868e-20)
(0.617495 -0.0740438 2.60657e-20)
(0.686073 -0.0669136 2.33689e-20)
(0.741166 -0.0604615 0)
(0.785937 -0.0547747 0)
(0.822896 -0.049704 1.48205e-20)
(0.853774 -0.0450676 0)
(0.879805 -0.0407463 0)
(0.901832 -0.0366635 0)
(0.920481 -0.0327962 -1.97778e-20)
(0.936278 -0.0291337 0)
(0.949635 -0.0256595 8.63633e-21)
(0.960882 -0.0223498 8.19751e-21)
(0.970282 -0.0191875 0)
(0.978051 -0.0161734 0)
(0.984368 -0.0133284 0)
(0.989392 -0.0106852 0)
(0.993279 -0.00826717 -3.11902e-23)
(0.99617 -0.00607699 0)
(0.998175 -0.0040993 -6.33278e-21)
(0.999385 -0.00231198 0)
(0.999957 -0.000700982 0)
(0.309924 -0.147638 1.99658e-20)
(0.435887 -0.143417 1.75959e-20)
(0.540404 -0.133816 5.93478e-20)
(0.62534 -0.121407 -2.70169e-20)
(0.693279 -0.108903 0)
(0.747691 -0.0976555 0)
(0.791822 -0.0879254 0)
(0.828197 -0.0794424 -7.34026e-20)
(0.858541 -0.071855 0)
(0.884078 -0.0648962 0)
(0.905643 -0.058415 0)
(0.923861 -0.0523448 9.84857e-21)
(0.939256 -0.0466338 0)
(0.952234 -0.041231 2.54879e-20)
(0.963121 -0.0360866 -7.35024e-20)
(0.972186 -0.0311622 3.14108e-20)
(0.979644 -0.0264471 0)
(0.985672 -0.0219665 -2.87896e-20)
(0.990432 -0.0177662 -2.78574e-20)
(0.99408 -0.0138782 2.02517e-20)
(0.996756 -0.0103003 5.19462e-20)
(0.99856 -0.00700703 -5.02968e-20)
(0.99955 -0.00399008 0)
(0.999893 -0.00127515 0)
(0.317242 -0.202059 -1.52527e-19)
(0.44613 -0.199002 -1.34728e-19)
(0.551673 -0.186143 1.17586e-19)
(0.636609 -0.168375 0)
(0.703958 -0.150374 -8.92885e-20)
(0.757562 -0.134274 0)
(0.800856 -0.120487 -6.6288e-20)
(0.836424 -0.108605 1.16211e-19)
(0.866006 -0.0980972 0)
(0.890819 -0.088541 0)
(0.911697 -0.0797035 0)
(0.929264 -0.0714711 0)
(0.94404 -0.0637547 0)
(0.956435 -0.0564708 0)
(0.966776 -0.0495424 0)
(0.975325 -0.0429079 3.05775e-20)
(0.982292 -0.0365424 -2.94137e-20)
(0.987858 -0.0304723 2.87418e-20)
(0.992185 -0.0247542 0)
(0.995435 -0.0194277 0)
(0.997748 -0.0144866 1.02685e-19)
(0.999188 -0.00990154 -1.98793e-19)
(0.999727 -0.00568937 1.90025e-23)
(0.999596 -0.00190585 8.63092e-20)
(0.324531 -0.257493 1.52967e-19)
(0.458574 -0.25514 3.9957e-19)
(0.566144 -0.238597 -1.17731e-19)
(0.651473 -0.21506 2.014e-19)
(0.718225 -0.191286 -8.55392e-20)
(0.770846 -0.170173 0)
(0.813067 -0.152258 -6.35318e-20)
(0.847582 -0.136962 -5.76414e-20)
(0.876155 -0.123555 0)
(0.9 -0.111445 -1.78776e-19)
(0.919955 -0.100307 1.65329e-19)
(0.936649 -0.0899755 -1.90922e-21)
(0.950603 -0.0803227 0)
(0.962226 -0.0712322 6.59242e-20)
(0.971837 -0.0625942 -1.25768e-19)
(0.979687 -0.0543213 -2.92075e-20)
(0.985988 -0.0463756 1.46371e-19)
(0.990919 -0.0387821 5.56205e-20)
(0.994649 -0.0316037 0)
(0.997344 -0.0248855 5.18431e-20)
(0.999146 -0.0186187 -5.00678e-20)
(1.00006 -0.0127808 4.84356e-20)
(0.999929 -0.00743523 0)
(0.999089 -0.0026484 0)
(0.331938 -0.314681 3.33461e-19)
(0.473625 -0.312311 -3.29041e-19)
(0.584202 -0.291449 5.87768e-20)
(0.67023 -0.261517 -2.0178e-19)
(0.736276 -0.231545 1.75205e-19)
(0.787655 -0.205168 7.42258e-20)
(0.828502 -0.183006 1.96023e-19)
(0.861673 -0.164261 0)
(0.888962 -0.147975 0)
(0.911582 -0.133367 2.25853e-21)
(0.930381 -0.120004 0)
(0.945987 -0.107662 -7.50629e-20)
(0.958921 -0.096166 0)
(0.969581 -0.0853611 -6.57651e-20)
(0.978276 -0.0751052 -6.18724e-20)
(0.985252 -0.0652877 1.19013e-19)
(0.990716 -0.055855 0)
(0.994848 -0.0468258 -1.64978e-19)
(0.99782 -0.0382643 1.06416e-19)
(0.999806 -0.0302179 -5.17468e-20)
(1.00095 -0.0226771 1.98987e-19)
(1.00119 -0.0156407 -9.56793e-20)
(1.00018 -0.00924934 -1.86018e-19)
(0.998402 -0.00355319 0)
(0.339707 -0.37448 -3.73495e-19)
(0.491918 -0.370951 6.19533e-20)
(0.606423 -0.344893 1.5936e-19)
(0.693317 -0.307706 9.40545e-20)
(0.758389 -0.270975 -3.32597e-19)
(0.808137 -0.239007 6.82953e-20)
(0.847224 -0.212448 -2.49907e-19)
(0.878702 -0.190216 1.11331e-19)
(0.904401 -0.171082 9.39332e-20)
(0.925527 -0.154055 -4.57678e-22)
(0.942928 -0.138566 0)
(0.957228 -0.124323 7.0986e-20)
(0.96894 -0.111097 -6.61713e-20)
(0.978449 -0.0986913 -1.25643e-19)
(0.986052 -0.0869333 6.01986e-20)
(0.991987 -0.0756875 5.78492e-20)
(0.996453 -0.0648829 -1.11205e-19)
(0.99963 -0.0545268 2.13085e-19)
(1.00169 -0.0446796 -2.07149e-19)
(1.00282 -0.0353871 -1.5005e-19)
(1.00316 -0.0266396 4.35111e-19)
(1.00257 -0.0184747 -2.81082e-19)
(1.00049 -0.0111485 2.26677e-19)
(0.997577 -0.004664 0)
(0.34823 -0.437876 5.52733e-19)
(0.514373 -0.431389 1.19417e-19)
(0.633598 -0.39899 -3.27261e-19)
(0.721306 -0.353446 0)
(0.784909 -0.30928 1.65114e-19)
(0.832466 -0.27135 -2.72329e-19)
(0.869291 -0.240239 0)
(0.898659 -0.214496 0)
(0.922424 -0.192571 -2.71595e-19)
(0.941764 -0.173229 -7.80116e-20)
(0.957518 -0.155745 0)
(0.970293 -0.139738 -7.08614e-20)
(0.980584 -0.124921 1.94882e-19)
(0.988762 -0.111054 -1.23424e-19)
(0.995108 -0.097933 -1.14229e-19)
(0.999846 -0.0853973 3.87471e-19)
(1.00317 -0.0733565 -3.20454e-19)
(1.00524 -0.0618031 1.04558e-19)
(1.00624 -0.050788 -2.98984e-19)
(1.00637 -0.0403505 -4.90688e-20)
(1.00578 -0.0304807 0)
(1.00423 -0.0212731 1.36138e-19)
(1.00091 -0.0131432 -2.21688e-19)
(0.996666 -0.00601755 -2.32671e-19)
(0.358116 -0.505952 -6.34831e-19)
(0.542268 -0.493748 0)
(0.666766 -0.453587 9.83671e-20)
(0.754915 -0.398334 -9.07788e-20)
(0.816235 -0.345995 0)
(0.860816 -0.301737 2.73481e-19)
(0.894738 -0.265959 -1.12477e-19)
(0.921501 -0.236725 1.02797e-19)
(0.942941 -0.212105 1.81083e-19)
(0.960187 -0.190596 3.19507e-19)
(0.974038 -0.171282 -1.47342e-19)
(0.98507 -0.153681 1.31009e-19)
(0.993751 -0.137442 1.2394e-19)
(1.00043 -0.12228 -1.18644e-19)
(1.00537 -0.107958 1.1385e-19)
(1.00877 -0.0942919 2.09341e-19)
(1.01081 -0.0811704 2.0451e-19)
(1.01165 -0.0685682 -9.85506e-20)
(1.01147 -0.0565224 1.92599e-19)
(1.01046 -0.0450603 -1.86231e-19)
(1.0088 -0.0341702 1.80972e-19)
(1.00615 -0.0240205 0)
(1.00146 -0.0152344 3.43327e-19)
(0.995727 -0.00763716 -2.32418e-19)
(0.370512 -0.580238 0)
(0.577372 -0.557899 0)
(0.707251 -0.508226 -4.50688e-19)
(0.794981 -0.441656 -3.93969e-19)
(0.852774 -0.380428 -1.30358e-19)
(0.893322 -0.329567 0)
(0.923545 -0.2891 -1.04391e-19)
(0.94712 -0.256477 8.94159e-20)
(0.965806 -0.229324 -3.37987e-19)
(0.980637 -0.205846 6.77109e-21)
(0.992331 -0.184913 -1.34827e-19)
(1.00141 -0.165927 -2.55523e-19)
(1.00831 -0.148466 -2.35069e-19)
(1.01333 -0.132202 1.13398e-19)
(1.01672 -0.116865 2.1307e-19)
(1.01866 -0.102248 -4.10798e-19)
(1.01931 -0.0882195 -1.0069e-19)
(1.01881 -0.0747346 -9.69868e-20)
(1.01733 -0.0618128 2.75479e-19)
(1.01508 -0.0494646 -8.83747e-20)
(1.01222 -0.0376735 -1.73782e-19)
(1.00836 -0.0266982 -8.2742e-20)
(1.00217 -0.017421 -4.12739e-19)
(0.99482 -0.00954418 3.01567e-19)
(0.387419 -0.663424 7.32964e-20)
(0.62255 -0.623451 3.78671e-19)
(0.756772 -0.561931 6.82764e-19)
(0.842419 -0.482227 3.19064e-19)
(0.894878 -0.411591 2.80842e-19)
(0.930023 -0.35407 0)
(0.955592 -0.309065 2.12319e-19)
(0.975322 -0.273288 0)
(0.990801 -0.243857 0)
(1.0029 -0.21867 1.4767e-19)
(1.01219 -0.196379 1.34811e-19)
(1.01912 -0.176256 2.44945e-19)
(1.02408 -0.157809 1.93034e-21)
(1.02732 -0.140663 0)
(1.02905 -0.12452 0)
(1.02943 -0.109152 9.98487e-20)
(1.02859 -0.0944064 -1.87613e-19)
(1.02666 -0.0802206 8.9419e-20)
(1.02379 -0.066594 1.75922e-19)
(1.02019 -0.0535156 -1.67434e-19)
(1.01604 -0.0409605 0)
(1.01085 -0.0292883 8.25595e-20)
(1.00306 -0.0196852 1.59429e-19)
(0.994013 -0.011743 2.65708e-19)
(0.411797 -0.759642 -3.50522e-19)
(0.683017 -0.689536 -3.85147e-19)
(0.817664 -0.612651 -3.24544e-19)
(0.898124 -0.518142 0)
(0.942726 -0.438116 2.30161e-19)
(0.970775 -0.374294 -2.05252e-19)
(0.990607 -0.325181 -5.7106e-21)
(1.0058 -0.286664 1.70133e-19)
(1.01762 -0.255333 1.43078e-19)
(1.02667 -0.228776 -3.50782e-21)
(1.03333 -0.205441 3.66182e-19)
(1.03796 -0.184471 -1.15346e-19)
(1.04085 -0.165304 1.03841e-19)
(1.04221 -0.147523 0)
(1.0422 -0.130804 0)
(1.04094 -0.114901 0)
(1.03854 -0.0996455 2.64619e-19)
(1.03511 -0.0849551 -1.72877e-19)
(1.03078 -0.0708089 1.66979e-19)
(1.02575 -0.0571698 -7.95112e-20)
(1.0202 -0.0439927 -7.67761e-20)
(1.01358 -0.0317266 0)
(1.00409 -0.0218988 -1.52145e-19)
(0.993516 -0.0142964 0)
(0.443201 -0.869701 6.53756e-19)
(0.765119 -0.748794 -6.86695e-20)
(0.892719 -0.655435 -1.26965e-19)
(0.962645 -0.546385 -2.14593e-21)
(0.996092 -0.458202 7.70469e-20)
(1.01513 -0.389138 1.10089e-19)
(1.0281 -0.336742 -2.65802e-19)
(1.03809 -0.296129 1.55762e-19)
(1.04583 -0.263413 -7.11362e-21)
(1.05157 -0.235911 -3.76367e-19)
(1.05544 -0.211902 -2.29999e-19)
(1.05764 -0.190412 -2.1296e-19)
(1.05837 -0.170818 1.95302e-19)
(1.05778 -0.15267 9.2025e-20)
(1.05597 -0.135622 0)
(1.05303 -0.119414 -8.44543e-20)
(1.04903 -0.103865 -1.73205e-22)
(1.04406 -0.0888763 -4.93594e-22)
(1.03822 -0.0744079 -1.58188e-19)
(1.0317 -0.0603945 0)
(1.02468 -0.0467642 -1.49826e-19)
(1.01659 -0.0340496 5.86391e-19)
(1.00541 -0.0241636 7.62981e-20)
(0.993315 -0.0170995 -3.39504e-20)
(0.506016 -1.03509 -1.61568e-19)
(0.882251 -0.792869 -1.74755e-19)
(0.983193 -0.683697 0)
(1.03524 -0.563109 0)
(1.05396 -0.46979 -2.02508e-19)
(1.06217 -0.397481 0)
(1.06731 -0.343102 0)
(1.07155 -0.301283 2.70319e-19)
(1.07491 -0.267835 -1.26897e-19)
(1.07715 -0.239893 5.6612e-21)
(1.07812 -0.215625 2.1375e-19)
(1.07783 -0.193971 -9.84119e-20)
(1.07636 -0.174263 9.07729e-20)
(1.07379 -0.156027 -9.18433e-20)
(1.07017 -0.138905 0)
(1.06554 -0.122629 8.41446e-20)
(1.05993 -0.107008 8.12075e-20)
(1.0534 -0.0919331 0)
(1.04603 -0.0773459 0)
(1.038 -0.0631539 0)
(1.02948 -0.049254 2.09089e-19)
(1.0199 -0.0362545 -2.74342e-19)
(1.00705 -0.0264794 0)
(0.993442 -0.0201062 0)
(-0.10216 -0.134891 1.39858e-18)
(-0.202497 -0.263318 1.02541e-18)
(-0.267151 -0.375081 -6.41279e-20)
(-0.24155 -0.364522 7.01897e-19)
(-0.276131 -0.475901 8.81312e-19)
(0.125123 -0.220513 6.99207e-19)
(-0.180775 -0.165976 0)
(-0.261224 -0.292438 0)
(-0.286224 -0.391521 -1.02044e-18)
(-0.245561 -0.38249 1.92066e-19)
(-0.187057 -0.434566 -8.27168e-20)
(0.204845 -0.215536 7.43214e-19)
(-0.226548 -0.152223 0)
(-0.279718 -0.273321 -9.75399e-19)
(-0.269026 -0.361842 8.17466e-19)
(-0.202889 -0.352034 -9.44094e-20)
(-0.0742133 -0.390559 2.47107e-19)
(0.348591 -0.230201 -7.47162e-19)
(-0.265682 -0.126772 0)
(-0.283873 -0.242501 -1.1508e-20)
(-0.245368 -0.322562 0)
(-0.144367 -0.310124 7.46148e-19)
(0.0439251 -0.337408 0)
(0.492613 -0.223427 0)
(-0.29873 -0.100227 2.08991e-20)
(-0.282431 -0.207514 9.85672e-19)
(-0.216146 -0.277514 0)
(-0.0813228 -0.262938 -7.28281e-19)
(0.157689 -0.279197 0)
(0.613844 -0.201617 -4.23939e-19)
(-0.325776 -0.0775293 -2.08637e-20)
(-0.278945 -0.171196 0)
(-0.184948 -0.229439 -5.21473e-20)
(-0.01983 -0.21364 -6.73187e-19)
(0.260153 -0.22108 7.62966e-20)
(0.711318 -0.171122 4.74026e-19)
(-0.349597 -0.0535604 0)
(-0.273912 -0.138199 0)
(-0.154846 -0.181166 5.07677e-20)
(0.036616 -0.164214 6.613e-19)
(0.346057 -0.164268 0)
(0.786707 -0.134813 0)
(-0.3694 -0.0345898 -4.37267e-20)
(-0.268407 -0.106304 -1.95554e-21)
(-0.127505 -0.13436 -3.63923e-19)
(0.0860312 -0.115451 0)
(0.414013 -0.109524 0)
(0.842854 -0.0947995 -5.7632e-20)
(-0.385245 -0.01984 0)
(-0.262741 -0.075439 0)
(-0.103811 -0.0898473 3.79602e-19)
(0.127031 -0.0682643 -3.35176e-19)
(0.465194 -0.0578976 -7.0689e-20)
(0.880497 -0.0530746 6.28255e-20)
(-0.396657 -0.00848336 0)
(-0.257379 -0.0457396 0)
(-0.0843904 -0.0480597 0)
(0.158983 -0.0234459 3.31635e-19)
(0.500874 -0.00983398 0)
(0.900952 -0.0111143 0)
(-0.403359 0.000345435 0)
(-0.252799 -0.0173487 5.24027e-20)
(-0.06965 -0.00922972 0)
(0.181667 0.0185053 0)
(0.522114 0.0345391 1.65126e-20)
(0.906047 0.0297866 -1.47785e-20)
(-0.405097 0.00751071 0)
(-0.24941 0.00961455 -5.14607e-20)
(-0.0598367 0.0266161 0)
(0.195199 0.057311 0)
(0.530138 0.0750262 0)
(0.897583 0.0686385 2.66806e-20)
(-0.401818 0.0139136 0)
(-0.247438 0.0350616 -6.35392e-21)
(-0.0549985 0.0596115 5.23424e-21)
(0.199929 0.0928412 0)
(0.526109 0.111486 0)
(0.87698 0.104545 -2.65771e-20)
(-0.394226 0.0203254 6.53291e-19)
(-0.246713 0.0590722 0)
(-0.0550551 0.0900284 0)
(0.196279 0.125103 0)
(0.511139 0.143879 0)
(0.845594 0.136732 1.9273e-19)
(-0.38232 0.0275158 -6.53633e-19)
(-0.247336 0.0818855 -3.785e-19)
(-0.0599018 0.118188 3.1881e-19)
(0.18473 0.154193 0)
(0.48627 0.172157 0)
(0.804655 0.1647 -1.91747e-19)
(-0.366443 0.0361529 -6.3098e-19)
(-0.249262 0.103776 3.79879e-19)
(-0.0694013 0.144467 -3.18335e-19)
(0.165761 0.180265 0)
(0.452425 0.196221 2.13591e-19)
(0.755159 0.188207 2.11774e-19)
(-0.346974 0.0467466 6.52935e-19)
(-0.252329 0.125037 -7.59157e-19)
(-0.0833998 0.169304 -3.76523e-20)
(0.139807 0.203529 5.93393e-19)
(0.410342 0.216076 -2.66681e-19)
(0.697794 0.206912 -2.46469e-19)
(-0.32432 0.0595859 1.92387e-20)
(-0.256232 0.145947 7.51239e-19)
(-0.101727 0.193223 0)
(0.107222 0.224308 -4.99995e-19)
(0.360631 0.231867 -3.82247e-19)
(0.633213 0.220501 0)
(-0.298785 0.0747513 5.76608e-20)
(-0.260439 0.166745 2.40064e-20)
(-0.12418 0.216868 -3.71467e-20)
(0.0682877 0.243108 0)
(0.303658 0.244107 -6.6463e-20)
(0.561953 0.229233 -2.68848e-19)
(-0.270369 0.0921872 0)
(-0.264146 0.187563 0)
(-0.150482 0.241004 -7.17448e-20)
(0.0231557 0.260604 5.11648e-19)
(0.239284 0.253617 6.24487e-19)
(0.484044 0.23328 3.54543e-19)
(-0.238788 0.111914 0)
(-0.266484 0.207988 0)
(-0.18031 0.266448 6.66127e-19)
(-0.0282127 0.277538 -9.15276e-19)
(0.166711 0.261412 -3.94799e-19)
(0.39882 0.2322 5.82448e-20)
(-0.203466 0.127493 1.14992e-18)
(-0.267356 0.229354 8.69103e-19)
(-0.213521 0.293559 -1.24604e-18)
(-0.0859816 0.294689 9.0821e-19)
(0.0848703 0.268872 3.85834e-19)
(0.306573 0.225417 -2.869e-19)
(-0.160184 0.132026 -2.47459e-18)
(-0.265537 0.252923 -9.02869e-19)
(-0.250148 0.319633 1.21836e-18)
(-0.14836 0.313002 -4.11856e-19)
(-0.0053943 0.277477 -3.30219e-19)
(0.207073 0.209009 2.35281e-19)
(-0.0798227 0.107686 1.31487e-18)
(-0.225798 0.268717 0)
(-0.256287 0.353777 -1.38101e-18)
(-0.187406 0.344697 0)
(-0.0777356 0.300025 3.02779e-19)
(0.113305 0.193572 0)
(0.748419 -0.973142 0)
(1.03888 -0.78815 1.15655e-19)
(1.08636 -0.686911 9.30649e-20)
(1.11271 -0.564585 -6.31145e-20)
(1.11411 -0.471201 -7.88064e-20)
(1.1104 -0.398505 7.15488e-20)
(1.10717 -0.343839 1.36757e-19)
(1.10539 -0.301899 -1.40009e-19)
(1.10421 -0.268468 0)
(1.10289 -0.240644 -1.04867e-19)
(1.10093 -0.216557 -9.75004e-20)
(1.09815 -0.195106 0)
(1.09451 -0.175603 0)
(1.08999 -0.157561 0)
(1.08458 -0.140621 -7.59979e-20)
(1.07827 -0.124512 7.32806e-20)
(1.07108 -0.109042 -7.0956e-20)
(1.06303 -0.0940913 -6.89237e-20)
(1.05416 -0.0795898 7.1453e-20)
(1.04462 -0.0654198 1.34336e-19)
(1.03459 -0.0514446 -2.62853e-19)
(1.0235 -0.0383378 2.62336e-19)
(1.00905 -0.0288378 -5.10861e-19)
(0.993929 -0.0232784 1.82051e-19)
(0.950559 -0.823581 -7.94049e-20)
(1.17874 -0.746831 8.82005e-20)
(1.18782 -0.662639 3.94839e-20)
(1.18883 -0.550494 -1.7988e-20)
(1.17332 -0.462187 0)
(1.15789 -0.392069 0)
(1.14643 -0.338914 1.18636e-19)
(1.13869 -0.297993 -2.24908e-19)
(1.13306 -0.265354 0)
(1.12825 -0.23821 0)
(1.12344 -0.214741 4.31416e-21)
(1.11825 -0.193854 -4.58487e-22)
(1.11251 -0.174863 7.93223e-20)
(1.10611 -0.157288 0)
(1.09898 -0.140776 7.58324e-20)
(1.09107 -0.125062 6.78534e-20)
(1.08236 -0.109956 7.09419e-20)
(1.07283 -0.0953349 -6.37762e-20)
(1.0625 -0.0811192 -6.21495e-20)
(1.05151 -0.0671697 3.76528e-19)
(1.04 -0.053317 -2.44891e-19)
(1.02742 -0.0402869 0)
(1.01144 -0.0312153 -1.82629e-19)
(0.994812 -0.0265772 4.11621e-19)
(1.06922 -0.678836 0)
(1.27949 -0.683032 9.42752e-20)
(1.27487 -0.618538 -3.59193e-20)
(1.258 -0.523591 0)
(1.2286 -0.44405 -7.19208e-20)
(1.20283 -0.378855 0)
(1.18387 -0.328739 -3.7786e-20)
(1.17061 -0.289859 1.3635e-19)
(1.16081 -0.258718 2.80302e-21)
(1.15271 -0.232772 -8.30629e-20)
(1.14523 -0.210321 5.10131e-21)
(1.13778 -0.190327 -7.53163e-20)
(1.13006 -0.17213 -7.66696e-20)
(1.1219 -0.155272 -1.21214e-21)
(1.11316 -0.139415 -9.45632e-22)
(1.10375 -0.124308 2.59309e-19)
(1.09361 -0.109765 5.49683e-22)
(1.0827 -0.0956659 3.72864e-22)
(1.07101 -0.0819255 -1.19316e-19)
(1.05863 -0.0683875 0)
(1.0457 -0.0548519 0)
(1.03167 -0.0420832 -2.83093e-19)
(1.01426 -0.0335785 1.6347e-19)
(0.996122 -0.0299639 5.49282e-20)
(1.15691 -0.561097 0)
(1.35242 -0.608274 8.56402e-20)
(1.34545 -0.564138 -1.05067e-19)
(1.31752 -0.487483 0)
(1.27803 -0.418665 7.22743e-20)
(1.2439 -0.360004 -4.01268e-20)
(1.21853 -0.314053 1.24888e-19)
(1.20043 -0.278005 -8.67412e-20)
(1.18689 -0.248937 0)
(1.17583 -0.224619 0)
(1.16592 -0.203526 7.55067e-20)
(1.15642 -0.184706 0)
(1.14691 -0.167547 -6.90885e-20)
(1.13715 -0.151622 0)
(1.12694 -0.13662 0)
(1.11616 -0.122305 5.68697e-20)
(1.10472 -0.108505 0)
(1.09254 -0.0951028 5.41374e-20)
(1.07959 -0.082012 0)
(1.06593 -0.0690639 1.59086e-19)
(1.05166 -0.0560315 -1.04924e-19)
(1.03627 -0.0437029 -1.58849e-19)
(1.01755 -0.0358862 4.68463e-19)
(0.997891 -0.0333996 -3.49514e-19)
(1.22286 -0.463087 -5.52861e-19)
(1.40568 -0.530092 -5.18032e-19)
(1.40132 -0.504604 -3.47307e-20)