/*--------------------------------*- C++ -*----------------------------------*\
  =========                 |
  \\      /  F ield         | OpenFOAM: The Open Source CFD Toolbox
   \\    /   O peration     | Website:  https://openfoam.org
    \\  /    A nd           | Version:  11
     \\/     M anipulation  |
\*---------------------------------------------------------------------------*/
FoamFile
{
    format      ascii;
    class       volScalarField;
    location    "1.62";
    object      k;
}
// * * * * * * * * * * * * * * * * * * * * * * * * * * * * * * * * * * * * * //

dimensions      [0 2 -2 0 0 0 0];

internalField   nonuniform List<scalar> 
2880
(
0.00417751
0.0108424
0.0312565
0.0618544
0.0933245
0.116765
0.0167504
0.0284261
0.0533354
0.0846545
0.118236
0.154822
0.0212389
0.0405352
0.067817
0.0997992
0.135206
0.174043
0.0233778
0.0487554
0.0772489
0.109898
0.146237
0.18505
0.0248998
0.0549217
0.0838411
0.116879
0.153667
0.192513
0.026792
0.0594651
0.0884826
0.121653
0.158715
0.197845
0.0286422
0.0627153
0.0916187
0.124717
0.162029
0.20172
0.0301009
0.0649068
0.0935062
0.126374
0.163988
0.204536
0.0311467
0.0661901
0.0943129
0.126823
0.164833
0.206527
0.0317878
0.0666692
0.0941728
0.126198
0.164733
0.207986
0.0320262
0.0664547
0.0931493
0.124592
0.163786
0.209096
0.0319404
0.0655456
0.0913272
0.122069
0.162059
0.210004
0.031472
0.0640064
0.0887683
0.118668
0.15957
0.210788
0.0307945
0.0618443
0.0855264
0.11441
0.156255
0.211413
0.0298818
0.0591061
0.0816533
0.109307
0.152025
0.211789
0.0287124
0.0558267
0.077199
0.103357
0.14673
0.211726
0.0272602
0.052039
0.0722222
0.0965597
0.140156
0.210783
0.0254343
0.0478361
0.066807
0.0889398
0.132052
0.208456
0.0247166
0.0435561
0.0610778
0.0805817
0.122149
0.203953
0.0237381
0.0395277
0.0551627
0.0716773
0.110223
0.196239
0.0222627
0.0354926
0.0490109
0.0622768
0.0962
0.184211
0.0202915
0.0309206
0.0421786
0.0521146
0.0797888
0.166425
0.0164542
0.0242961
0.0330933
0.0398741
0.0598297
0.138361
0.00435478
0.00892443
0.0148762
0.0199684
0.0312391
0.101229
0.190213
0.224944
0.25251
0.272646
0.283055
0.283277
0.276701
0.261181
0.238458
0.212317
0.185535
0.160644
0.139425
0.122659
0.110024
0.100664
0.0938086
0.0890843
0.086522
0.086247
0.0873061
0.0901247
0.0942835
0.0987197
0.206027
0.241179
0.268275
0.283813
0.28647
0.279994
0.263247
0.238222
0.210085
0.182192
0.15717
0.136441
0.120224
0.107778
0.0981464
0.0906247
0.0849305
0.0811328
0.0794362
0.0796369
0.08113
0.0842655
0.0882728
0.0923196
0.218594
0.254908
0.27944
0.287361
0.282777
0.266495
0.239833
0.210073
0.181264
0.156089
0.135564
0.119421
0.10669
0.0964536
0.0881183
0.0814653
0.0765451
0.0735248
0.0725315
0.0730609
0.0749379
0.0781002
0.0818877
0.0855665
0.22838
0.264948
0.283649
0.284138
0.270918
0.244115
0.213115
0.183387
0.157774
0.136969
0.12036
0.1069
0.0957651
0.086475
0.0788489
0.0728906
0.0686969
0.0663624
0.0658847
0.0666508
0.0687182
0.0717635
0.0752792
0.0786055
0.235792
0.270695
0.282528
0.274654
0.251362
0.219664
0.188929
0.162463
0.140835
0.123241
0.108648
0.0963333
0.0859153
0.0772404
0.0702661
0.0650036
0.0614823
0.059694
0.0595402
0.0604283
0.062504
0.0653394
0.0685457
0.071538
0.241201
0.272169
0.275597
0.260263
0.229717
0.1981
0.170376
0.147404
0.128357
0.112246
0.098449
0.0866743
0.0767995
0.0687517
0.0624637
0.0578729
0.0549174
0.0535081
0.0535002
0.0543936
0.0563272
0.0588807
0.0617525
0.0644312
0.24504
0.270553
0.265846
0.243078
0.210997
0.18174
0.157004
0.136092
0.118084
0.102463
0.0890338
0.077724
0.0684536
0.0610962
0.055496
0.0514991
0.0489684
0.0477704
0.0477551
0.0485437
0.0502154
0.0524295
0.0549471
0.0573322
0.247629
0.266084
0.255192
0.227165
0.196683
0.169977
0.146892
0.126633
0.108807
0.093351
0.0802792
0.0695361
0.0609605
0.0543169
0.0493504
0.0458328
0.0435812
0.0424486
0.0423024
0.0428861
0.0441998
0.0460245
0.0481686
0.0502746
0.249341
0.260155
0.244756
0.214962
0.18654
0.161193
0.138427
0.118017
0.100093
0.0848292
0.072249
0.0621893
0.0543527
0.0483884
0.0439637
0.0408049
0.0387084
0.0375284
0.0371554
0.0374456
0.0383247
0.0397069
0.0414506
0.0432835
0.250411
0.254188
0.23573
0.206631
0.179295
0.154007
0.130727
0.109866
0.0918765
0.0769622
0.0650181
0.0557104
0.0485984
0.0432399
0.0392553
0.036351
0.0343178
0.0330154
0.0323528
0.0322662
0.0326562
0.0335259
0.0348195
0.0363674
0.251054
0.249444
0.2291
0.20099
0.173699
0.147582
0.123412
0.102102
0.0842137
0.0698228
0.0586147
0.0500692
0.0436255
0.0387841
0.0351474
0.0324205
0.0303963
0.0289375
0.0279611
0.0274223
0.0272962
0.0275618
0.0282983
0.029501
0.251482
0.24644
0.22492
0.197235
0.169016
0.141532
0.116379
0.0947656
0.0771768
0.0634468
0.0530168
0.0451974
0.0393443
0.0349339
0.0315724
0.028975
0.0269406
0.0253311
0.0240586
0.0230757
0.0223654
0.0219437
0.0219182
0.0225345
0.251984
0.245043
0.223032
0.194772
0.164836
0.135707
0.10964
0.0879249
0.0708113
0.0578251
0.0481646
0.0410072
0.035663
0.0316102
0.0284728
0.0259831
0.0239494
0.0222324
0.0207314
0.0193754
0.0181136
0.0169001
0.0156916
0.014839
0.252719
0.244959
0.22295
0.193143
0.160932
0.130067
0.103246
0.0816318
0.0651246
0.0529122
0.0439771
0.0374056
0.0324948
0.0287419
0.0257964
0.0234121
0.0214105
0.0196563
0.0180399
0.0164626
0.0148197
0.0129704
0.010626
0.00699632
0.253806
0.246488
0.224255
0.192055
0.157195
0.124624
0.097244
0.0759097
0.06009
0.0486389
0.0403644
0.0343016
0.0297581
0.0262606
0.0234876
0.0212157
0.019284
0.0175691
0.0159695
0.0143907
0.0127329
0.0108911
0.0087649
0.00592263
0.255307
0.249767
0.226729
0.19132
0.153575
0.119408
0.0916675
0.0707526
0.0556565
0.0449252
0.0372376
0.0316103
0.0273767
0.0240974
0.0214798
0.0193229
0.0174825
0.0158499
0.0143368
0.0128632
0.0113447
0.00969525
0.00784592
0.00557738
0.257291
0.254835
0.230033
0.190794
0.150048
0.114439
0.0865255
0.0661305
0.0517593
0.0416903
0.0345151
0.0292562
0.0252818
0.0221871
0.019706
0.0176565
0.0159086
0.0143644
0.0129452
0.0115804
0.0101968
0.00872674
0.00713702
0.00530763
0.259928
0.261791
0.233987
0.190389
0.146603
0.109727
0.0818061
0.0619975
0.0483293
0.038859
0.0321266
0.0271772
0.0234182
0.0204781
0.0181142
0.0161609
0.0144993
0.0130403
0.0117127
0.0104534
0.00919932
0.00789888
0.00654237
0.00506411
0.26358
0.27065
0.23847
0.19002
0.143213
0.10526
0.077476
0.0582977
0.0453004
0.0363666
0.0300145
0.0253241
0.0217441
0.0189336
0.0166708
0.0148034
0.0132221
0.0118445
0.0106057
0.00944927
0.00832089
0.00718141
0.00603346
0.00484009
0.26885
0.281416
0.243374
0.189564
0.139827
0.101001
0.0734895
0.0549756
0.0426147
0.0341592
0.0281327
0.0236593
0.0202288
0.0175285
0.0153544
0.0135657
0.0120604
0.0107619
0.00961051
0.00855504
0.00754817
0.00655932
0.00559657
0.00463939
0.27669
0.294153
0.248083
0.188825
0.136358
0.0968946
0.0697999
0.0519808
0.0402217
0.0321918
0.0264444
0.0221542
0.0188505
0.016246
0.0141519
0.0124369
0.011005
0.00978441
0.00871902
0.00776201
0.0068713
0.00602185
0.00522292
0.00446317
0.288609
0.308815
0.251981
0.187556
0.132682
0.0928793
0.0663598
0.0492662
0.0380768
0.0304271
0.024921
0.0207874
0.0175934
0.0150745
0.0130549
0.0114106
0.0100508
0.0089069
0.00792601
0.00706432
0.0062835
0.00556176
0.00490692
0.00431206
0.306943
0.324853
0.254911
0.185402
0.128636
0.0888864
0.0631243
0.0467898
0.0361424
0.0288352
0.0235402
0.0195429
0.0164466
0.0140064
0.0120576
0.0104823
0.0091935
0.00812526
0.00722681
0.00645659
0.00577876
0.005173
0.00464386
0.00418545
0.334884
0.337207
0.256004
0.181823
0.124043
0.0848602
0.0600593
0.0445182
0.0343889
0.0273929
0.0222852
0.0184094
0.0154022
0.0130364
0.0111561
0.00964864
0.00842969
0.00743549
0.00661686
0.00593364
0.00535143
0.00484984
0.00442887
0.00408153
0.00643659
0.036606
0.0782329
0.125869
0.15403
0.189074
0.0216647
0.0723518
0.117213
0.165145
0.220404
0.319262
0.0310555
0.0917978
0.140071
0.191324
0.252931
0.33639
0.0386405
0.10497
0.155636
0.208609
0.268761
0.334835
0.0451285
0.114947
0.167063
0.220195
0.276309
0.32795
0.0506304
0.122811
0.175662
0.227906
0.27924
0.319637
0.0552388
0.129044
0.182118
0.232896
0.279545
0.311147
0.0589543
0.133898
0.186844
0.235933
0.278378
0.303176
0.0618071
0.137517
0.190117
0.237545
0.276397
0.296109
0.0638423
0.139987
0.192134
0.238109
0.274069
0.290137
0.0651033
0.141367
0.193037
0.237879
0.271731
0.285369
0.0656253
0.141698
0.192927
0.237013
0.269601
0.281878
0.0654397
0.141007
0.191864
0.23561
0.267807
0.279721
0.0645444
0.139305
0.18987
0.233698
0.266385
0.278922
0.0629427
0.136588
0.186923
0.231232
0.265287
0.279505
0.0606158
0.132831
0.182954
0.228091
0.264367
0.28147
0.0575307
0.127986
0.177848
0.224069
0.263353
0.284856
0.0536423
0.121978
0.171427
0.218845
0.261811
0.28959
0.0488977
0.114684
0.163439
0.211935
0.259101
0.295525
0.0432448
0.105898
0.153514
0.202655
0.254264
0.302143
0.0366484
0.0952228
0.141049
0.190003
0.245664
0.308369
0.0291162
0.0817495
0.124886
0.172403
0.230358
0.310929
0.0200559
0.0627585
0.102127
0.147027
0.202519
0.29724
0.00535802
0.0290726
0.0640832
0.109347
0.151114
0.177677
0.371812
0.342372
0.253104
0.176324
0.118814
0.0807911
0.0571508
0.0424291
0.0327949
0.0260834
0.0211441
0.0173788
0.014455
0.0121606
0.0103473
0.00890627
0.00775569
0.00683339
0.00609129
0.00549002
0.00499556
0.00458614
0.00425657
0.00399779
0.394625
0.334494
0.245118
0.16895
0.113057
0.0767367
0.0544084
0.0405112
0.0313461
0.024895
0.0201087
0.0164459
0.0136013
0.011376
0.00962808
0.00825182
0.00716749
0.00631425
0.00564477
0.00511973
0.00470456
0.00437516
0.00412116
0.00393143
0.381669
0.319301
0.233935
0.160408
0.107071
0.0728068
0.0518576
0.0387618
0.0300337
0.0238203
0.0191742
0.0156072
0.0128384
0.01068
0.0089953
0.00768148
0.00666057
0.00587285
0.00527132
0.00481605
0.00447112
0.00420968
0.00401681
0.00387977
0.362853
0.302471
0.22152
0.151508
0.101189
0.0691155
0.0495255
0.0371812
0.0288528
0.0228549
0.0183374
0.0148602
0.0121638
0.0100695
0.00844531
0.00719089
0.00622987
0.00550345
0.00496446
0.00457171
0.00428748
0.00408241
0.00393801
0.00384045
0.34396
0.285808
0.209092
0.142866
0.0956676
0.0657462
0.0474303
0.0357694
0.0277999
0.0219961
0.0175962
0.0142029
0.0115748
0.00954122
0.00797397
0.00677513
0.00586982
0.00519982
0.00471726
0.00437912
0.00414581
0.00398618
0.00387973
0.00381126
0.326747
0.270309
0.19741
0.134872
0.0906648
0.0627448
0.0455793
0.0345247
0.0268728
0.0212421
0.0169491
0.0136333
0.0110687
0.0090915
0.00757679
0.00642893
0.00557443
0.00495535
0.00452254
0.00423078
0.00403881
0.00391465
0.00383721
0.00378983
0.311622
0.256435
0.186877
0.127737
0.086258
0.0601278
0.0439716
0.0334442
0.026069
0.0205914
0.0163946
0.0131496
0.0106431
0.0087169
0.00724947
0.00614721
0.00533789
0.00476352
0.00437334
0.00411985
0.00396047
0.00386297
0.00380647
0.00377426
0.298643
0.244384
0.177688
0.121553
0.082471
0.0578922
0.0426007
0.0325237
0.0253864
0.0200425
0.0159314
0.01275
0.0102954
0.00841437
0.00698828
0.00592555
0.00515507
0.00461853
0.00426339
0.00404017
0.00390551
0.00382738
0.00378534
0.00376361
0.287815
0.234231
0.169915
0.116341
0.0792953
0.0560237
0.0414566
0.0317581
0.0248223
0.0195937
0.0155581
0.0124328
0.0100235
0.0081812
0.00678998
0.00576015
0.00502152
0.00451531
0.00418733
0.00398656
0.00386944
0.00380462
0.00377229
0.003757
0.279111
0.225987
0.163565
0.112085
0.076705
0.0545022
0.0405279
0.0311419
0.0243736
0.0192429
0.0152728
0.012196
0.00982505
0.00801471
0.00665148
0.00564743
0.00493315
0.00444937
0.00414056
0.00395474
0.00384863
0.00379238
0.00376543
0.00375349
0.272496
0.219631
0.158612
0.108744
0.0746665
0.0533059
0.0398026
0.0306682
0.0240367
0.0189881
0.0150735
0.0120375
0.00969768
0.00791219
0.00656976
0.00558403
0.00488626
0.00441686
0.00411954
0.00394186
0.00384111
0.00378826
0.00376311
0.00375229
0.267943
0.215133
0.155013
0.106276
0.0731443
0.0524125
0.0392681
0.0303297
0.0238077
0.0188265
0.014958
0.0119548
0.00963893
0.00787118
0.0065422
0.00556713
0.00487782
0.00441455
0.00412135
0.00394568
0.00384525
0.00379116
0.00376453
0.00375251
0.265453
0.212471
0.152727
0.104634
0.0721044
0.0518008
0.0389122
0.030119
0.0236818
0.0187547
0.0149234
0.0119455
0.00964579
0.00788738
0.00656307
0.00559023
0.0049024
0.00443968
0.00414423
0.00396476
0.00385996
0.00380098
0.00376951
0.00375377
0.26506
0.211641
0.151721
0.103781
0.0715156
0.0514506
0.0387223
0.030028
0.0236533
0.0187677
0.0149632
0.0120014
0.00970963
0.00795412
0.00663094
0.00565691
0.00496363
0.00449229
0.00418742
0.00399842
0.00388454
0.00381721
0.00377824
0.00375628
0.266824
0.212664
0.151975
0.103684
0.0713492
0.0513421
0.0386855
0.0300475
0.0237137
0.0188574
0.0150725
0.0121212
0.00983431
0.00807916
0.00675044
0.00576536
0.00505825
0.00457146
0.0042508
0.00404682
0.00391936
0.00383994
0.00379059
0.00376016
0.270897
0.21559
0.153477
0.104312
0.0715771
0.051455
0.038788
0.0301678
0.0238574
0.0190217
0.015251
0.0123075
0.0100207
0.00825827
0.0069161
0.00591369
0.00518627
0.00467753
0.00433503
0.0041108
0.00396525
0.00386997
0.00380713
0.00376569
0.277438
0.220491
0.156221
0.105638
0.0721696
0.051767
0.0390142
0.0303786
0.0240781
0.019257
0.0154962
0.012555
0.0102626
0.00848726
0.00712679
0.00610163
0.00534808
0.00481142
0.00444133
0.00419164
0.00402345
0.00390836
0.00382875
0.00377344
0.286658
0.227454
0.160195
0.107624
0.0730921
0.052252
0.0393451
0.0306652
0.0243626
0.0195512
0.015798
0.0128565
0.0105554
0.00876405
0.00738147
0.00632908
0.00554436
0.00497443
0.00457138
0.0042911
0.00409558
0.00395655
0.0038566
0.00378412
0.298783
0.236551
0.165358
0.110221
0.0743002
0.0528781
0.0397582
0.031011
0.0246984
0.0198945
0.0161481
0.0132059
0.0108953
0.00908624
0.00767894
0.00659592
0.00577597
0.0051682
0.00472725
0.00441135
0.00418367
0.00401626
0.00389202
0.00379857
0.314076
0.247819
0.171605
0.113339
0.0757299
0.0536035
0.0402257
0.0313963
0.0250705
0.0202752
0.0165377
0.0135967
0.0112775
0.00945066
0.00801749
0.00690175
0.00604368
0.00539439
0.00491121
0.00455488
0.00429006
0.00408947
0.00393651
0.00381762
0.33254
0.261173
0.178686
0.116814
0.0772824
0.0543713
0.0407125
0.0317981
0.0254619
0.02068
0.0169565
0.0140208
0.0116961
0.00985317
0.00839462
0.00724557
0.0063478
0.00565445
0.00512549
0.00472431
0.00441734
0.00417841
0.00399169
0.00384227
0.352676
0.276204
0.186065
0.120346
0.0788029
0.0551034
0.0411758
0.0321897
0.0258536
0.0210943
0.017393
0.0144695
0.0121442
0.0102887
0.00880688
0.00762547
0.00668787
0.00594921
0.00537196
0.00492217
0.00456833
0.00428568
0.00405916
0.00387342
0.36941
0.291788
0.192699
0.123416
0.0800605
0.0556978
0.0415654
0.0325416
0.0262261
0.0215039
0.0178359
0.0149332
0.0126143
0.0107514
0.00925009
0.00803885
0.00706281
0.00627902
0.00565228
0.00515114
0.00474606
0.00441374
0.00413974
0.00391135
0.352267
0.302451
0.196674
0.125237
0.0807561
0.0560404
0.0418307
0.0328265
0.0265617
0.0218953
0.0182743
0.0154031
0.0130989
0.0112354
0.00971989
0.00848283
0.00747118
0.00664381
0.00596754
0.00541308
0.00495271
0.00456458
0.00423551
0.00395667
0.00639394
0.00972643
0.0146348
0.0209382
0.0363042
0.117185
0.0201361
0.0269998
0.0362773
0.0467394
0.0814414
0.170197
0.0270674
0.036646
0.0503649
0.0680763
0.120129
0.213107
0.0318204
0.045345
0.0630319
0.0881683
0.150269
0.230701
0.0355683
0.0537986
0.0752917
0.10668
0.170699
0.233828
0.0386372
0.0619728
0.0868642
0.122698
0.18385
0.23173
0.041226
0.069806
0.0974589
0.135711
0.191186
0.225814
0.0434284
0.0771714
0.10694
0.146003
0.194525
0.218852
0.0452846
0.0839304
0.11527
0.154049
0.195212
0.211824
0.0468163
0.0899414
0.122442
0.160196
0.194539
0.205272
0.0480432
0.0950657
0.128482
0.164791
0.193081
0.199498
0.0489905
0.0991683
0.133417
0.168189
0.191568
0.19469
0.0495591
0.102198
0.137283
0.170694
0.190459
0.190989
0.0496079
0.104158
0.140118
0.172581
0.190081
0.18849
0.0491799
0.105041
0.141953
0.174064
0.190418
0.18742
0.0481948
0.104838
0.142757
0.175265
0.19144
0.187766
0.046634
0.103534
0.142474
0.176174
0.19338
0.189662
0.0444418
0.101075
0.14101
0.17655
0.195949
0.193415
0.0415318
0.0973296
0.138182
0.175895
0.198446
0.198385
0.0377765
0.0920019
0.1336
0.17339
0.199597
0.203583
0.0329884
0.084498
0.126604
0.167882
0.19781
0.20646
0.0268618
0.0735848
0.115955
0.157539
0.189941
0.203075
0.0182588
0.0562405
0.0987511
0.139185
0.17018
0.183285
0.00619663
0.0301855
0.0693016
0.108883
0.132368
0.118184
0.324484
0.297733
0.196114
0.125107
0.080695
0.0560577
0.0419391
0.0330268
0.0268479
0.0222586
0.0186995
0.0158714
0.0135917
0.0117353
0.0102121
0.00895455
0.00791141
0.00704323
0.00631851
0.00570969
0.00519056
0.00474068
0.00434873
0.00401032
0.29927
0.284419
0.192483
0.12356
0.0800965
0.0558376
0.0419081
0.0331416
0.0270804
0.0225883
0.0191057
0.0163326
0.0140871
0.0122466
0.010723
0.00945121
0.00838171
0.00747651
0.00670544
0.00604225
0.0054618
0.00494483
0.00448214
0.00407351
0.278483
0.264295
0.186481
0.121023
0.0790825
0.0554288
0.0417719
0.0331796
0.0272616
0.0228834
0.01949
0.0167828
0.0145813
0.0127653
0.0112493
0.00997013
0.00888015
0.0079426
0.00712828
0.00641177
0.0057685
0.00517987
0.00463871
0.00414757
0.261565
0.24494
0.177974
0.117739
0.077772
0.0548787
0.0415536
0.0331599
0.0273991
0.0231461
0.0198521
0.0172201
0.0150716
0.0132886
0.011788
0.0105087
0.00940469
0.00844015
0.00758657
0.00681891
0.00611253
0.00544873
0.00482168
0.00423397
0.246996
0.22731
0.168241
0.113771
0.076295
0.0542318
0.0412741
0.033097
0.0275
0.0233797
0.0201927
0.0176439
0.0155563
0.0138141
0.0123366
0.0110645
0.00995315
0.00896756
0.00807954
0.0072639
0.00649532
0.00575406
0.00503467
0.00433467
0.234034
0.211494
0.158699
0.109252
0.0746353
0.0535134
0.0409498
0.0329997
0.0275708
0.0235881
0.0205137
0.0180544
0.0160346
0.0143405
0.0128933
0.0116355
0.0105236
0.00952326
0.00860627
0.00774686
0.00691822
0.0060983
0.00528006
0.00445106
0.222117
0.197432
0.149739
0.104769
0.0728308
0.052748
0.0405944
0.0328765
0.0276177
0.0237753
0.0208177
0.0184531
0.0165072
0.0148678
0.0134578
0.0122212
0.0111155
0.0101068
0.00916662
0.00826822
0.00738251
0.00648359
0.00556012
0.00458403
0.211174
0.185023
0.141544
0.10055
0.07097
0.0519572
0.040217
0.0327351
0.027647
0.0239464
0.0211086
0.018843
0.0169765
0.0153981
0.0140321
0.0128236
0.0117309
0.0107204
0.00976295
0.00883046
0.00789097
0.00691322
0.00587824
0.00473455
0.20127
0.17417
0.134187
0.0966638
0.0691332
0.0511354
0.039826
0.0325834
0.0276657
0.0241072
0.0213912
0.0192286
0.0174471
0.0159365
0.014622
0.0134495
0.0123775
0.0113722
0.0104037
0.00944196
0.00845171
0.00739518
0.00624178
0.00490459
0.192464
0.164781
0.127696
0.0931605
0.0673894
0.0503105
0.0394365
0.0324313
0.0276814
0.0242641
0.0216715
0.019616
0.0179257
0.016491
0.0152375
0.0141113
0.0130708
0.0120811
0.0111105
0.0101262
0.00908889
0.00795328
0.00667219
0.0051016
0.184817
0.156772
0.122076
0.0900763
0.0658318
0.0495339
0.039071
0.0322924
0.0277031
0.0244247
0.0219565
0.0200124
0.0184206
0.0170719
0.0158923
0.014828
0.0138365
0.0128818
0.0119292
0.0109416
0.0098734
0.00866828
0.00725127
0.0053748
0.178393
0.150084
0.117322
0.0874351
0.0644927
0.0488596
0.0387601
0.0321853
0.0277436
0.0245987
0.0222545
0.0204254
0.0189398
0.017689
0.0165999
0.0156193
0.0147054
0.0138219
0.0129339
0.0120036
0.0109833
0.00980377
0.00833959
0.00614877
0.173253
0.144676
0.113435
0.0852554
0.0634064
0.0483578
0.0385422
0.0321303
0.0278182
0.0247975
0.0225743
0.0208622
0.0194894
0.0183482
0.0173673
0.016496
0.015696
0.0149361
0.0141914
0.0134443
0.0126888
0.0119501
0.0113458
0.0111778
0.169509
0.140543
0.110421
0.0835849
0.0626327
0.0480843
0.0384454
0.0321391
0.0279412
0.0250336
0.0229258
0.02133
0.0200739
0.0190512
0.0181934
0.0174543
0.0168019
0.0162151
0.0156831
0.0152081
0.0148088
0.014535
0.0145128
0.0148856
0.167316
0.137732
0.108313
0.0824603
0.06233
0.0480161
0.038474
0.0322488
0.0281345
0.0253229
0.0233211
0.0218376
0.0206988
0.0197996
0.0190747
0.0184839
0.0180033
0.0176223
0.0173432
0.0171798
0.0171562
0.0173021
0.0176941
0.0183508
0.166936
0.136388
0.107203
0.082019
0.0623185
0.0481927
0.0386945
0.0324912
0.028423
0.0256847
0.0237756
0.0223971
0.0213726
0.0205975
0.0200102
0.0195759
0.0192787
0.019117
0.0191023
0.0192444
0.0195695
0.0200845
0.0208111
0.0216848
0.168127
0.136507
0.107202
0.0822916
0.0628036
0.0487131
0.0391567
0.0329052
0.0288371
0.0261434
0.0243091
0.0230246
0.0221077
0.0214532
0.0210021
0.0207248
0.0206117
0.0206646
0.0208961
0.0213368
0.02198
0.0228151
0.0238305
0.0249105
0.171737
0.138527
0.108529
0.0834688
0.0639119
0.0496718
0.0399306
0.0335426
0.0294163
0.0267299
0.024947
0.0237411
0.0229212
0.022379
0.0220569
0.0219295
0.0219847
0.0222302
0.0227049
0.0234098
0.0243387
0.0254632
0.0267486
0.0280422
0.177649
0.142677
0.111481
0.0857915
0.0658241
0.0512039
0.0411164
0.0344777
0.0302154
0.0274864
0.025723
0.0245748
0.0238364
0.0233932
0.0231871
0.0231929
0.0233836
0.0238139
0.0244941
0.0254302
0.0266115
0.0279988
0.0295434
0.0310639
0.185122
0.149005
0.116369
0.0895907
0.0688103
0.0535142
0.0428666
0.0358191
0.0313138
0.0284727
0.0266844
0.0255644
0.024886
0.024524
0.0244171
0.0245147
0.0248297
0.0254076
0.0262526
0.0273775
0.0287708
0.0303888
0.0321777
0.0339369
0.191987
0.156813
0.123229
0.0951916
0.0732318
0.0569093
0.0454173
0.0377445
0.0328358
0.0297792
0.0279003
0.0267659
0.0261177
0.0258124
0.0257805
0.0259391
0.0263453
0.0270248
0.0279864
0.0292483
0.0308021
0.0326064
0.0346117
0.0366138
0.193546
0.164099
0.131255
0.102576
0.0794186
0.0617911
0.049123
0.0405287
0.0349887
0.0315529
0.0294796
0.0282648
0.0276034
0.0273237
0.0273317
0.0275248
0.0279818
0.028713
0.029733
0.0310679
0.0327166
0.034645
0.0368184
0.0390532
0.186436
0.166431
0.138125
0.110736
0.0872267
0.0684674
0.0544345
0.0445965
0.0381104
0.0340479
0.0316069
0.0302017
0.0294565
0.0291554
0.0291688
0.0293649
0.0298264
0.0305575
0.0315715
0.0329046
0.0345675
0.0365373
0.0388042
0.0412403
0.1614
0.158404
0.140694
0.117467
0.0954285
0.0765408
0.0615069
0.0503536
0.0426415
0.0376445
0.0345816
0.0328054
0.0318578
0.0314552
0.0314369
0.0315995
0.0320139
0.0326968
0.0336405
0.0348893
0.0364722
0.0383814
0.0406356
0.0432124
0.00421883
0.0096811
0.0190737
0.0289644
0.0374028
0.0469728
0.016647
0.0264786
0.0398267
0.0505039
0.0587542
0.0661366
0.0205952
0.0345927
0.0502723
0.0620415
0.0712106
0.079028
0.0225991
0.0402365
0.0575213
0.0702283
0.0803106
0.0890099
0.0239979
0.0449558
0.0633498
0.0768331
0.0877327
0.0972725
0.0249341
0.0492841
0.0683147
0.0824329
0.0940444
0.10431
0.0264117
0.0532295
0.0726005
0.0872437
0.0994633
0.110326
0.0282232
0.056675
0.0762645
0.0913539
0.104082
0.115403
0.0296585
0.0595632
0.0793244
0.0948035
0.107945
0.119588
0.0307538
0.0618806
0.0817932
0.097618
0.111085
0.122922
0.0315373
0.0636249
0.0836843
0.0998199
0.11354
0.125463
0.0320395
0.0647917
0.0850093
0.101431
0.115351
0.127287
0.0322294
0.0653818
0.0857739
0.102472
0.116568
0.128492
0.0320883
0.0653982
0.0859659
0.102955
0.117241
0.129183
0.0315762
0.064833
0.08559
0.102884
0.117413
0.129473
0.0306923
0.063657
0.084604
0.102244
0.117117
0.129469
0.0294426
0.0618238
0.0829528
0.100992
0.116358
0.129265
0.0278475
0.059261
0.0805485
0.0990455
0.115099
0.128919
0.0260029
0.0558563
0.0772521
0.0962558
0.113235
0.128451
0.024862
0.0514341
0.0728398
0.09237
0.110549
0.127808
0.0233727
0.0458663
0.0669243
0.0869441
0.106616
0.126809
0.0212689
0.0386181
0.0587198
0.0791296
0.100599
0.125021
0.0169933
0.0279534
0.0462107
0.0669943
0.0907175
0.121471
0.00417961
0.010127
0.0246794
0.0460725
0.0733259
0.11424
0.112229
0.139269
0.135794
0.121871
0.102797
0.0850487
0.0699139
0.0578932
0.0489837
0.0428273
0.0388501
0.0364421
0.0350974
0.0344576
0.0343183
0.0344229
0.0347392
0.0353284
0.0361483
0.0372373
0.0386374
0.0403668
0.0424723
0.0450928
0.0927038
0.123286
0.12794
0.123205
0.110152
0.0942274
0.079392
0.0668675
0.0570193
0.0497707
0.0447739
0.041544
0.0395984
0.0385381
0.0381033
0.0380998
0.0382715
0.0386876
0.0393554
0.0402387
0.0413799
0.0428085
0.0445936
0.0471138
0.0952148
0.11956
0.129432
0.1289
0.123058
0.110461
0.0960465
0.0825113
0.0710849
0.0619977
0.0552633
0.0505227
0.0473341
0.0452915
0.0440887
0.0434874
0.0433504
0.0434725
0.0437734
0.0443488
0.0451753
0.046215
0.0475164
0.0496904
0.10258
0.122324
0.136207
0.143088
0.142836
0.138264
0.128215
0.116017
0.103145
0.0909324
0.0807917
0.0728552
0.0667129
0.062047
0.058586
0.0560978
0.054388
0.0531945
0.0523771
0.0519448
0.0519151
0.0521035
0.0525716
0.0538337
0.110114
0.127775
0.143792
0.156076
0.163519
0.166073
0.164721
0.160677
0.153472
0.144978
0.13542
0.125423
0.115744
0.106688
0.0984349
0.0912004
0.0850276
0.0797299
0.0752175
0.0714567
0.0684266
0.0660193
0.0641988
0.0634819
0.117054
0.133658
0.150271
0.165414
0.177887
0.187185
0.193545
0.197223
0.198105
0.197385
0.195227
0.190873
0.18503
0.178124
0.170077
0.161008
0.151152
0.140926
0.130677
0.120701
0.111341
0.102778
0.0954214
0.0887787
0.123176
0.13913
0.155617
0.171783
0.186771
0.200009
0.21135
0.220706
0.22808
0.233703
0.237423
0.239033
0.238858
0.237311
0.233815
0.228149
0.220777
0.211806
0.201472
0.190005
0.177711
0.164887
0.152461
0.140077
0.128366
0.143778
0.159734
0.17583
0.191517
0.206316
0.219961
0.23222
0.242939
0.252014
0.259279
0.26463
0.268064
0.269483
0.269018
0.267012
0.262938
0.25689
0.249342
0.240409
0.230231
0.219029
0.207586
0.197055
0.132571
0.147395
0.162522
0.177817
0.192963
0.207642
0.22152
0.23431
0.245767
0.255688
0.263892
0.270255
0.274711
0.277236
0.277878
0.276943
0.274357
0.26996
0.264254
0.257481
0.250023
0.242479
0.235493
0.230026
0.135801
0.149927
0.163978
0.177993
0.191829
0.205225
0.217894
0.229553
0.239955
0.2489
0.256243
0.261899
0.265855
0.268161
0.268924
0.268348
0.266546
0.263527
0.259609
0.25502
0.250056
0.245162
0.240884
0.237434
0.138121
0.15144
0.16423
0.176661
0.188661
0.200049
0.210593
0.220058
0.228243
0.235018
0.240308
0.24412
0.246538
0.247707
0.247849
0.247143
0.245766
0.243886
0.241672
0.239286
0.236891
0.234642
0.232492
0.229756
0.139649
0.152109
0.163576
0.174277
0.184213
0.193267
0.201279
0.208094
0.213609
0.217801
0.220714
0.222474
0.223275
0.223419
0.223149
0.222701
0.222267
0.221917
0.221646
0.221469
0.221343
0.221178
0.220777
0.219607
0.140549
0.152189
0.162397
0.171442
0.179381
0.186168
0.191731
0.196021
0.19907
0.200977
0.20187
0.202043
0.201773
0.201377
0.201194
0.201488
0.202463
0.204082
0.205908
0.208074
0.210528
0.213069
0.215346
0.217361
0.141014
0.151998
0.16117
0.168848
0.175147
0.180096
0.183717
0.18607
0.187283
0.187655
0.187484
0.187127
0.186927
0.187114
0.187772
0.188837
0.190235
0.192246
0.194571
0.196974
0.199498
0.202168
0.205369
0.210881
0.141255
0.151875
0.160414
0.167236
0.172516
0.176371
0.178924
0.180357
0.180989
0.181168
0.181218
0.18145
0.182062
0.18307
0.1843
0.185433
0.186074
0.185671
0.184975
0.183734
0.181898
0.179843
0.179247
0.183129
0.141492
0.152164
0.160588
0.167199
0.172248
0.175924
0.178435
0.180058
0.181141
0.182026
0.18301
0.184268
0.18577
0.187249
0.188256
0.188258
0.186921
0.183368
0.178081
0.171608
0.164184
0.156279
0.149587
0.150168
0.141942
0.153206
0.162143
0.16929
0.174974
0.17945
0.182976
0.185853
0.188388
0.190829
0.193299
0.195727
0.197792
0.199001
0.198808
0.196649
0.191068
0.183305
0.173789
0.163103
0.152074
0.141563
0.133193
0.133216
0.14282
0.155317
0.165447
0.173888
0.181037
0.187178
0.192558
0.197404
0.201876
0.206006
0.209643
0.212444
0.213863
0.213406
0.209764
0.202106
0.192588
0.181092
0.167963
0.154391
0.141731
0.131207
0.124557
0.124889
0.144344
0.158799
0.170806
0.181228
0.19051
0.198897
0.206527
0.213441
0.219552
0.224608
0.228169
0.229804
0.228346
0.223047
0.213931
0.202756
0.18908
0.173593
0.157659
0.142797
0.130497
0.121918
0.118649
0.120265
0.146766
0.163971
0.178486
0.191432
0.203241
0.214017
0.223678
0.23199
0.238594
0.243022
0.244521
0.241623
0.234772
0.224732
0.211617
0.195525
0.17765
0.159538
0.142859
0.129107
0.119439
0.11446
0.114515
0.117666
0.150419
0.171189
0.188727
0.204505
0.218838
0.23157
0.242318
0.250551
0.255713
0.256351
0.252527
0.244717
0.233034
0.21733
0.198676
0.17853
0.15862
0.140699
0.126196
0.115981
0.110387
0.109374
0.110914
0.115845
0.155804
0.180839
0.201686
0.22023
0.236531
0.250076
0.260209
0.265987
0.265678
0.26138
0.252158
0.237782
0.219401
0.198281
0.176168
0.155003
0.136554
0.122023
0.111856
0.105954
0.104169
0.104905
0.10775
0.113411
0.163687
0.193233
0.217254
0.237935
0.254914
0.267318
0.273678
0.272892
0.267931
0.256781
0.23957
0.218404
0.195013
0.171435
0.149713
0.131461
0.117472
0.107681
0.101589
0.0988244
0.0989049
0.100447
0.104264
0.109536
0.17496
0.208267
0.234722
0.256179
0.271708
0.279383
0.278687
0.272833
0.25939
0.239351
0.215561
0.190261
0.16578
0.144115
0.126549
0.11332
0.103878
0.0975043
0.0937472
0.0926217
0.0932412
0.0955205
0.0997153
0.104559
)
;

boundaryField
{
    rotor
    {
        type            kqRWallFunction;
        value           nonuniform List<scalar> 
144
(
0.00417751
0.0108424
0.0312565
0.0618544
0.0933245
0.116765
0.00417751
0.0167504
0.0212389
0.0233778
0.0248998
0.026792
0.0286422
0.0301009
0.0311467
0.0317878
0.0320262
0.0319404
0.031472
0.0307945
0.0298818
0.0287124
0.0272602
0.0254343
0.0247166
0.0237381
0.0222627
0.0202915
0.0164542
0.00435478
0.00435478
0.00892443
0.0148762
0.0199684
0.0312391
0.101229
0.00643659
0.036606
0.0782329
0.125869
0.15403
0.189074
0.00643659
0.0216647
0.0310555
0.0386405
0.0451285
0.0506304
0.0552388
0.0589543
0.0618071
0.0638423
0.0651033
0.0656253
0.0654397
0.0645444
0.0629427
0.0606158
0.0575307
0.0536423
0.0488977
0.0432448
0.0366484
0.0291162
0.0200559
0.00535802
0.00535802
0.0290726
0.0640832
0.109347
0.151114
0.177677
0.00639394
0.00972643
0.0146348
0.0209382
0.0363042
0.117185
0.00639394
0.0201361
0.0270674
0.0318204
0.0355683
0.0386372
0.041226
0.0434284
0.0452846
0.0468163
0.0480432
0.0489905
0.0495591
0.0496079
0.0491799
0.0481948
0.046634
0.0444418
0.0415318
0.0377765
0.0329884
0.0268618
0.0182588
0.00619663
0.00619663
0.0301855
0.0693016
0.108883
0.132368
0.118184
0.00421883
0.0096811
0.0190737
0.0289644
0.0374028
0.0469728
0.00421883
0.016647
0.0205952
0.0225991
0.0239979
0.0249341
0.0264117
0.0282232
0.0296585
0.0307538
0.0315373
0.0320395
0.0322294
0.0320883
0.0315762
0.0306923
0.0294426
0.0278475
0.0260029
0.024862
0.0233727
0.0212689
0.0169933
0.00417961
0.00417961
0.010127
0.0246794
0.0460725
0.0733259
0.11424
)
;
    }