/*--------------------------------*- C++ -*----------------------------------*\
  =========                 |
  \\      /  F ield         | OpenFOAM: The Open Source CFD Toolbox
   \\    /   O peration     | Website:  https://openfoam.org
    \\  /    A nd           | Version:  11
     \\/     M anipulation  |
\*---------------------------------------------------------------------------*/
FoamFile
{
    format      ascii;
    class       surfaceScalarField;
    location    "1.62";
    object      meshPhi;
}
// * * * * * * * * * * * * * * * * * * * * * * * * * * * * * * * * * * * * * //

dimensions      [0 3 -1 0 0 0 0];

internalField   nonuniform List<scalar> 
5640
(
1.36948e-16
9.81747e-07
2.4208e-16
1.37445e-06
3.77013e-16
1.76715e-06
-1.33939e-15
2.15984e-06
-3.68158e-15
2.55254e-06
2.94524e-06
5.95127e-15
1.82254e-18
9.81747e-07
-3.88794e-16
1.37445e-06
-2.60418e-15
1.76715e-06
1.94353e-15
2.15984e-06
8.0661e-15
2.55254e-06
2.94524e-06
-9.03003e-15
-1.16473e-16
9.81747e-07
1.86365e-16
1.37445e-06
-1.56244e-15
1.76715e-06
-4.21266e-15
2.15984e-06
-7.49846e-15
2.55254e-06
2.94524e-06
7.72337e-16
8.6925e-17
9.81747e-07
-1.01946e-16
1.37445e-06
2.6931e-15
1.76715e-06
7.44287e-15
2.15984e-06
3.25982e-15
2.55254e-06
2.94524e-06
-2.79804e-15
-4.83797e-17
9.81747e-07
3.94621e-17
1.37445e-06
1.94282e-16
1.76715e-06
-1.8061e-15
2.15984e-06
-4.20861e-15
2.55254e-06
2.94524e-06
5.01312e-15
-1.80125e-16
9.81747e-07
4.27115e-18
1.37445e-06
-1.84775e-15
1.76715e-06
-3.88612e-15
2.15984e-06
3.15694e-15
2.55254e-06
2.94524e-06
4.98061e-16
2.53941e-16
9.81747e-07
2.5541e-16
1.37445e-06
2.06596e-15
1.76715e-06
4.50408e-15
2.15984e-06
-2.31016e-15
2.55254e-06
2.94524e-06
5.40866e-16
2.1656e-17
9.81747e-07
-3.21715e-16
1.37445e-06
-1.14892e-15
1.76715e-06
-5.28559e-15
2.15984e-06
-3.76972e-16
2.55254e-06
2.94524e-06
-5.63998e-15
-1.43418e-16
9.81747e-07
1.66374e-16
1.37445e-06
4.19103e-15
1.76715e-06
6.34938e-15
2.15984e-06
-8.05646e-16
2.55254e-06
2.94524e-06
8.392e-16
-6.8813e-17
9.81747e-07
-9.20873e-17
1.37445e-06
-2.76941e-15
1.76715e-06
-3.68827e-16
2.15984e-06
-1.45082e-15
2.55254e-06
2.94524e-06
-1.76615e-16
1.66328e-16
9.81747e-07
-8.87297e-17
1.37445e-06
5.69644e-16
1.76715e-06
-2.10356e-15
2.15984e-06
9.65975e-15
2.55254e-06
2.94524e-06
5.28992e-15
-1.77799e-16
9.81747e-07
-2.05615e-17
1.37445e-06
-3.45495e-16
1.76715e-06
-4.17258e-15
2.15984e-06
-2.62252e-15
2.55254e-06
2.94524e-06
5.36918e-15
1.77785e-16
9.81747e-07
2.04317e-17
1.37445e-06
3.45401e-16
1.76715e-06
4.17267e-15
2.15984e-06
2.62246e-15
2.55254e-06
2.94524e-06
-5.36954e-15
-1.66334e-16
9.81747e-07
8.86677e-17
1.37445e-06
-5.69752e-16
1.76715e-06
2.10357e-15
2.15984e-06
-9.66014e-15
2.55254e-06
2.94524e-06
-5.29002e-15
6.8799e-17
9.81747e-07
9.20618e-17
1.37445e-06
2.76931e-15
1.76715e-06
3.68737e-16
2.15984e-06
1.45082e-15
2.55254e-06
2.94524e-06
1.7684e-16
1.43377e-16
9.81747e-07
-1.66429e-16
1.37445e-06
-4.19119e-15
1.76715e-06
-6.3495e-15
2.15984e-06
8.05495e-16
2.55254e-06
2.94524e-06
-8.39377e-16
-2.16971e-17
9.81747e-07
3.21601e-16
1.37445e-06
1.14885e-15
1.76715e-06
5.28557e-15
2.15984e-06
3.76583e-16
2.55254e-06
2.94524e-06
5.63966e-15
-2.54006e-16
9.81747e-07
-2.55492e-16
1.37445e-06
-2.06605e-15
1.76715e-06
-4.50422e-15
2.15984e-06
2.30993e-15
2.55254e-06
2.94524e-06
-5.41056e-16
1.80101e-16
9.81747e-07
-4.31501e-18
1.37445e-06
1.84775e-15
1.76715e-06
3.88612e-15
2.15984e-06
-3.15712e-15
2.55254e-06
2.94524e-06
-4.98324e-16
4.83548e-17
9.81747e-07
-3.95284e-17
1.37445e-06
-1.94421e-16
1.76715e-06
1.80613e-15
2.15984e-06
4.20835e-15
2.55254e-06
2.94524e-06
-5.01344e-15
-8.69727e-17
9.81747e-07
1.019e-16
1.37445e-06
-2.69312e-15
1.76715e-06
-7.44291e-15
2.15984e-06
-3.25992e-15
2.55254e-06
2.94524e-06
2.79792e-15
1.16459e-16
9.81747e-07
-1.86414e-16
1.37445e-06
1.56235e-15
1.76715e-06
4.21245e-15
2.15984e-06
7.49837e-15
2.55254e-06
2.94524e-06
-7.72481e-16
-1.86362e-18
9.81747e-07
3.8877e-16
1.37445e-06
2.60414e-15
1.76715e-06
-1.94373e-15
2.15984e-06
-8.06621e-15
2.55254e-06
2.94524e-06
9.02967e-15
-1.36971e-16
-2.42137e-16
-3.77021e-16
1.33918e-15
3.68146e-15
-5.95133e-15
-1.13358e-14
4.53785e-06
-4.53785e-06
-4.81407e-16
5.23599e-06
-5.23599e-06
-5.35757e-15
5.93412e-06
-5.93412e-06
-1.13037e-14
6.63225e-06
-6.63225e-06
4.86915e-15
7.33038e-06
-7.33038e-06
-1.10993e-15
8.02851e-06
-8.02851e-06
-8.1586e-15
8.72664e-06
-8.72664e-06
1.30429e-14
9.42478e-06
-9.42478e-06
5.9499e-15
1.01229e-05
-1.01229e-05
-1.99644e-15
1.0821e-05
-1.0821e-05
2.43861e-14
1.15192e-05
-1.15192e-05
1.61898e-14
1.22173e-05
-1.22173e-05
-3.27873e-14
1.29154e-05
-1.29154e-05
-3.05285e-15
1.36136e-05
-1.36136e-05
-1.44437e-14
1.43117e-05
-1.43117e-05
-2.69034e-14
1.50098e-05
-1.50098e-05
7.7391e-15
1.5708e-05
-1.5708e-05
-4.4397e-15
1.64061e-05
-1.64061e-05
-1.80018e-14
1.71042e-05
-1.71042e-05
2.18198e-14
1.78024e-05
-1.78024e-05
8.21074e-15
1.85005e-05
-1.85005e-05
-6.08731e-15
1.91986e-05
-1.91986e-05
3.89152e-14
1.98967e-05
-1.98967e-05
2.05949e-05
-2.05949e-05
9.39892e-15
4.53785e-06
5.19929e-16
5.23599e-06
7.5282e-15
5.93412e-06
-4.41212e-15
6.63225e-06
3.78276e-15
7.33038e-06
1.33842e-14
8.02851e-06
-2.11008e-15
8.72664e-06
8.52738e-15
9.42478e-06
-1.00268e-14
1.01229e-05
1.86491e-15
1.0821e-05
-2.02027e-14
1.15192e-05
-7.01257e-15
1.22173e-05
7.51104e-15
1.29154e-05
2.36063e-14
1.36136e-05
-2.04338e-15
1.43117e-05
1.48317e-14
1.50098e-05
-1.388e-14
1.5708e-05
2.38997e-15
1.64061e-05
2.04119e-14
1.71042e-05
-7.01874e-15
1.78024e-05
1.20653e-14
1.85005e-05
-2.59451e-14
1.91986e-05
1.8449e-15
1.98967e-05
2.05949e-05
-8.67627e-15
4.53785e-06
1.2292e-14
5.23599e-06
1.88308e-15
5.93412e-06
8.9017e-15
6.63225e-06
-5.10896e-15
7.33038e-06
-2.19912e-14
8.02851e-06
1.22647e-14
8.72664e-06
-5.37489e-15
9.42478e-06
4.45693e-15
1.01229e-05
-1.43065e-14
1.0821e-05
-7.32797e-15
1.15192e-05
7.03956e-15
1.22173e-05
2.39944e-14
1.29154e-05
-7.55551e-15
1.36136e-05
9.79866e-15
1.43117e-05
-1.62381e-14
1.50098e-05
4.02926e-14
1.5708e-05
1.44436e-14
1.64061e-05
-1.37046e-14
1.71042e-05
-7.89995e-15
1.78024e-05
-3.92513e-14
1.85005e-05
4.27496e-14
1.91986e-05
-8.85377e-15
1.98967e-05
2.05949e-05
5.98576e-15
4.53785e-06
2.18838e-16
5.23599e-06
-6.43575e-15
5.93412e-06
6.0634e-15
6.63225e-06
-2.09283e-15
7.33038e-06
1.61771e-14
8.02851e-06
-1.88308e-14
8.72664e-06
-2.35068e-15
9.42478e-06
9.17094e-15
1.01229e-05
-4.71076e-15
1.0821e-05
2.16267e-14
1.15192e-05
-2.96465e-14
1.22173e-05
-9.29105e-15
1.29154e-05
-1.89074e-14
1.36136e-05
4.46494e-15
1.43117e-05
3.01564e-14
1.50098e-05
-2.62191e-14
1.5708e-05
4.35005e-16
1.64061e-05
-2.11749e-14
1.71042e-05
1.87133e-14
1.78024e-05
-3.92025e-15
1.85005e-05
-2.91576e-14
1.91986e-05
1.52296e-14
1.98967e-05
2.05949e-05
6.71467e-15
4.53785e-06
-7.30667e-15
5.23599e-06
1.11008e-14
5.93412e-06
-4.24115e-15
6.63225e-06
1.5102e-14
7.33038e-06
-5.20926e-15
8.02851e-06
1.70129e-14
8.72664e-06
-3.9409e-15
9.42478e-06
-2.95272e-16
1.01229e-05
6.61069e-15
1.0821e-05
1.37048e-14
1.15192e-05
1.01842e-14
1.22173e-05
1.82161e-14
1.29154e-05
1.43676e-14
1.36136e-05
2.33389e-14
1.43117e-05
-2.53449e-14
1.50098e-05
2.90706e-14
1.5708e-05
-7.82712e-15
1.64061e-05
3.54142e-14
1.71042e-05
-4.51265e-15
1.78024e-05
4.23691e-14
1.85005e-05
-5.87609e-16
1.91986e-05
-8.73773e-15
1.98967e-05
2.05949e-05
-4.63074e-15
4.53785e-06
5.79751e-15
5.23599e-06
-1.61504e-14
5.93412e-06
-5.97478e-15
6.63225e-06
-8.55495e-15
7.33038e-06
4.22307e-15
8.02851e-06
-8.18801e-15
8.72664e-06
6.99934e-15
9.42478e-06
-2.42299e-14
1.01229e-05
-7.77009e-15
1.0821e-05
-2.27653e-14
1.15192e-05
8.35058e-15
1.22173e-05
-7.40502e-15
1.29154e-05
2.82652e-14
1.36136e-05
-4.57122e-14
1.43117e-05
-8.22358e-15
1.50098e-05
-2.82301e-14
1.5708e-05
-2.33855e-15
1.64061e-05
-6.9475e-15
1.71042e-05
2.21466e-14
1.78024e-05
-3.41095e-14
1.85005e-05
-3.74274e-15
1.91986e-05
-3.23507e-14
1.98967e-05
2.05949e-05
-8.92517e-15
4.53785e-06
-2.28911e-15
5.23599e-06
-2.22414e-15
5.93412e-06
6.61644e-15
6.63225e-06
-3.3887e-15
7.33038e-06
-3.90754e-15
8.02851e-06
-6.41901e-15
8.72664e-06
-7.15809e-15
9.42478e-06
6.80918e-15
1.01229e-05
6.98343e-15
1.0821e-05
-9.06502e-15
1.15192e-05
6.76022e-15
1.22173e-05
-2.88899e-14
1.29154e-05
-1.22361e-14
1.36136e-05
4.8014e-15
1.43117e-05
2.50256e-14
1.50098e-05
3.85768e-15
1.5708e-05
3.60698e-15
1.64061e-05
-2.04856e-14
1.71042e-05
-2.17625e-14
1.78024e-05
3.4637e-15
1.85005e-05
2.90389e-14
1.91986e-05
-1.66233e-15
1.98967e-05
2.05949e-05
6.21548e-15
4.53785e-06
-3.87955e-15
5.23599e-06
1.54213e-14
5.93412e-06
-7.06541e-15
6.63225e-06
-2.21061e-15
7.33038e-06
1.42894e-15
8.02851e-06
-5.4932e-15
8.72664e-06
1.3224e-14
9.42478e-06
6.04669e-15
1.01229e-05
-1.74511e-14
1.0821e-05
2.0888e-14
1.15192e-05
-2.14457e-14
1.22173e-05
1.91336e-14
1.29154e-05
-7.3169e-15
1.36136e-05
3.84836e-14
1.43117e-05
-1.29221e-14
1.50098e-05
-1.88436e-15
1.5708e-05
5.71575e-15
1.64061e-05
-7.58755e-15
1.71042e-05
2.76559e-14
1.78024e-05
1.40946e-14
1.85005e-05
-5.31482e-14
1.91986e-05
3.90832e-14
1.98967e-05
2.05949e-05
-1.49884e-15
4.53785e-06
1.08969e-14
5.23599e-06
-6.59979e-15
5.93412e-06
7.2658e-15
6.63225e-06
6.17547e-15
7.33038e-06
2.48827e-15
8.02851e-06
-9.6433e-16
8.72664e-06
-4.36633e-15
9.42478e-06
-8.90122e-15
1.01229e-05
1.38635e-14
1.0821e-05
1.06914e-14
1.15192e-05
6.24947e-15
1.22173e-05
-1.26596e-16
1.29154e-05
-3.4383e-15
1.36136e-05
-1.10448e-14
1.43117e-05
-1.77656e-14
1.50098e-05
1.76807e-14
1.5708e-05
9.9531e-15
1.64061e-05
3.32734e-15
1.71042e-05
-3.2969e-14
1.78024e-05
-1.04231e-14
1.85005e-05
3.00623e-14
1.91986e-05
-5.9995e-14
1.98967e-05
2.05949e-05
5.17005e-15
4.53785e-06
-7.4555e-15
5.23599e-06
-7.57114e-16
5.93412e-06
6.83917e-15
6.63225e-06
-9.97424e-15
7.33038e-06
-1.66482e-15
8.02851e-06
9.21842e-15
8.72664e-06
-1.34587e-14
9.42478e-06
2.32199e-14
1.01229e-05
1.04722e-14
1.0821e-05
-1.72725e-14
1.15192e-05
-3.02845e-15
1.22173e-05
1.13981e-14
1.29154e-05
-1.98183e-14
1.36136e-05
-4.68035e-15
1.43117e-05
5.03062e-14
1.50098e-05
-2.40456e-14
1.5708e-05
-6.65927e-15
1.64061e-05
1.42572e-14
1.71042e-05
1.65331e-15
1.78024e-05
-6.81196e-15
1.85005e-05
1.4437e-14
1.91986e-05
5.07591e-14
1.98967e-05
2.05949e-05
-6.19749e-15
4.53785e-06
2.85201e-17
5.23599e-06
1.15114e-14
5.93412e-06
-2.06258e-14
6.63225e-06
5.3659e-15
7.33038e-06
1.22065e-15
8.02851e-06
-4.81523e-17
8.72664e-06
1.23939e-14
9.42478e-06
-1.32267e-14
1.01229e-05
-1.88954e-14
1.0821e-05
-4.96501e-15
1.15192e-05
-7.15473e-15
1.22173e-05
-1.48884e-14
1.29154e-05
3.53359e-14
1.36136e-05
-9.01465e-19
1.43117e-05
-4.31395e-14
1.50098e-05
1.35631e-14
1.5708e-05
-2.82573e-14
1.64061e-05
2.45543e-15
1.71042e-05
-1.02407e-14
1.78024e-05
2.37998e-14
1.85005e-05
1.3873e-14
1.91986e-05
-4.55636e-14
1.98967e-05
2.05949e-05
-1.90692e-15
4.53785e-06
1.13068e-15
5.23599e-06
-2.1662e-14
5.93412e-06
9.6237e-15
6.63225e-06
1.5137e-14
7.33038e-06
-1.40658e-14
8.02851e-06
8.09231e-15
8.72664e-06
-2.69594e-14
9.42478e-06
-1.96605e-15
1.01229e-05
2.97162e-14
1.0821e-05
-1.17466e-14
1.15192e-05
1.98671e-14
1.22173e-05
-2.74456e-14
1.29154e-05
-2.06163e-14
1.36136e-05
1.60434e-14
1.43117e-05
-4.61386e-15
1.50098e-05
4.6923e-15
1.5708e-05
4.79638e-14
1.64061e-05
-1.37429e-14
1.71042e-05
3.23692e-14
1.78024e-05
-3.51902e-14
1.85005e-05
-2.49074e-14
1.91986e-05
7.19125e-14
1.98967e-05
2.05949e-05
1.90633e-15
4.53785e-06
-1.13092e-15
5.23599e-06
2.16618e-14
5.93412e-06
-9.62399e-15
6.63225e-06
-1.51378e-14
7.33038e-06
1.40643e-14
8.02851e-06
-8.09385e-15
8.72664e-06
2.69592e-14
9.42478e-06
1.96506e-15
1.01229e-05
-2.97175e-14
1.0821e-05
1.17447e-14
1.15192e-05
-1.98686e-14
1.22173e-05
2.7443e-14
1.29154e-05
2.06141e-14
1.36136e-05
-1.60423e-14
1.43117e-05
4.61061e-15
1.50098e-05
-4.69397e-15
1.5708e-05
-4.79703e-14
1.64061e-05
1.37343e-14
1.71042e-05
-3.23754e-14
1.78024e-05
3.51831e-14
1.85005e-05
2.49038e-14
1.91986e-05
-7.192e-14
1.98967e-05
2.05949e-05
6.19711e-15
4.53785e-06
-2.87348e-17
5.23599e-06
-1.15121e-14
5.93412e-06
2.06259e-14
6.63225e-06
-5.36756e-15
7.33038e-06
-1.22194e-15
8.02851e-06
4.69109e-17
8.72664e-06
-1.23947e-14
9.42478e-06
1.32257e-14
1.01229e-05
1.8893e-14
1.0821e-05
4.96302e-15
1.15192e-05
7.15277e-15
1.22173e-05
1.48872e-14
1.29154e-05
-3.53404e-14
1.36136e-05
-4.97795e-19
1.43117e-05
4.31318e-14
1.50098e-05
-1.35645e-14
1.5708e-05
2.82537e-14
1.64061e-05
-2.45629e-15
1.71042e-05
1.02357e-14
1.78024e-05
-2.38074e-14
1.85005e-05
-1.38769e-14
1.91986e-05
4.5557e-14
1.98967e-05
2.05949e-05
-5.1705e-15
4.53785e-06
7.45511e-15
5.23599e-06
7.56642e-16
5.93412e-06
-6.84045e-15
6.63225e-06
9.97366e-15
7.33038e-06
1.66359e-15
8.02851e-06
-9.22024e-15
8.72664e-06
1.3459e-14
9.42478e-06
-2.32223e-14
1.01229e-05
-1.04733e-14
1.0821e-05
1.72728e-14
1.15192e-05
3.02657e-15
1.22173e-05
-1.13989e-14
1.29154e-05
1.98143e-14
1.36136e-05
4.67953e-15
1.43117e-05
-5.0307e-14
1.50098e-05
2.40444e-14
1.5708e-05
6.65438e-15
1.64061e-05
-1.42662e-14
1.71042e-05
-1.65037e-15
1.78024e-05
6.80894e-15
1.85005e-05
-1.44482e-14
1.91986e-05
-5.07622e-14
1.98967e-05
2.05949e-05
1.49851e-15
4.53785e-06
-1.08975e-14
5.23599e-06
6.5989e-15
5.93412e-06
-7.26527e-15
6.63225e-06
-6.17462e-15
7.33038e-06
-2.48927e-15
8.02851e-06
9.64201e-16
8.72664e-06
4.36418e-15
9.42478e-06
8.90052e-15
1.01229e-05
-1.38633e-14
1.0821e-05
-1.069e-14
1.15192e-05
-6.25219e-15
1.22173e-05
1.25456e-16
1.29154e-05
3.43838e-15
1.36136e-05
1.10421e-14
1.43117e-05
1.77648e-14
1.50098e-05
-1.76815e-14
1.5708e-05
-9.95707e-15
1.64061e-05
-3.33231e-15
1.71042e-05
3.29663e-14
1.78024e-05
1.04225e-14
1.85005e-05
-3.00725e-14
1.91986e-05
5.99849e-14
1.98967e-05
2.05949e-05
-6.216e-15
4.53785e-06
3.87863e-15
5.23599e-06
-1.54226e-14
5.93412e-06
7.06492e-15
6.63225e-06
2.21098e-15
7.33038e-06
-1.43002e-15
8.02851e-06
5.49309e-15
8.72664e-06
-1.32263e-14
9.42478e-06
-6.04612e-15
1.01229e-05
1.74493e-14
1.0821e-05
-2.08879e-14
1.15192e-05
2.14454e-14
1.22173e-05
-1.91362e-14
1.29154e-05
7.31541e-15
1.36136e-05
-3.84874e-14
1.43117e-05
1.29233e-14
1.50098e-05
1.88073e-15
1.5708e-05
-5.72006e-15
1.64061e-05
7.5807e-15
1.71042e-05
-2.76616e-14
1.78024e-05
-1.41028e-14
1.85005e-05
5.31379e-14
1.91986e-05
-3.90875e-14
1.98967e-05
2.05949e-05
8.92498e-15
4.53785e-06
2.28846e-15
5.23599e-06
2.22384e-15
5.93412e-06
-6.61632e-15
6.63225e-06
3.38844e-15
7.33038e-06
3.90588e-15
8.02851e-06
6.41857e-15
8.72664e-06
7.15865e-15
9.42478e-06
-6.81029e-15
1.01229e-05
-6.98329e-15
1.0821e-05
9.06537e-15
1.15192e-05
-6.76012e-15
1.22173e-05
2.88857e-14
1.29154e-05
1.22327e-14
1.36136e-05
-4.8079e-15
1.43117e-05
-2.50287e-14
1.50098e-05
-3.86428e-15
1.5708e-05
-3.6083e-15
1.64061e-05
2.04815e-14
1.71042e-05
2.17572e-14
1.78024e-05
-3.4702e-15
1.85005e-05
-2.90418e-14
1.91986e-05
1.66239e-15
1.98967e-05
2.05949e-05
4.63039e-15
4.53785e-06
-5.79786e-15
5.23599e-06
1.61501e-14
5.93412e-06
5.97474e-15
6.63225e-06
8.55479e-15
7.33038e-06
-4.22457e-15
8.02851e-06
8.1868e-15
8.72664e-06
-6.9993e-15
9.42478e-06
2.42286e-14
1.01229e-05
7.76954e-15
1.0821e-05
2.2765e-14
1.15192e-05
-8.34997e-15
1.22173e-05
7.40083e-15
1.29154e-05
-2.82664e-14
1.36136e-05
4.57079e-14
1.43117e-05
8.2189e-15
1.50098e-05
2.82283e-14
1.5708e-05
2.33787e-15
1.64061e-05
6.94068e-15
1.71042e-05
-2.21536e-14
1.78024e-05
3.41059e-14
1.85005e-05
3.73896e-15
1.91986e-05
3.234e-14
1.98967e-05
2.05949e-05
-6.71526e-15
4.53785e-06
7.30682e-15
5.23599e-06
-1.11013e-14
5.93412e-06
4.24088e-15
6.63225e-06
-1.51027e-14
7.33038e-06
5.20913e-15
8.02851e-06
-1.70138e-14
8.72664e-06
3.9406e-15
9.42478e-06
2.93576e-16
1.01229e-05
-6.61114e-15
1.0821e-05
-1.37062e-14
1.15192e-05
-1.01857e-14
1.22173e-05
-1.82195e-14
1.29154e-05
-1.43684e-14
1.36136e-05
-2.33448e-14
1.43117e-05
2.53403e-14
1.50098e-05
-2.9074e-14
1.5708e-05
7.82518e-15
1.64061e-05
-3.54212e-14
1.71042e-05
4.50865e-15
1.78024e-05
-4.23728e-14
1.85005e-05
5.82846e-16
1.91986e-05
8.7263e-15
1.98967e-05
2.05949e-05
-5.98595e-15
4.53785e-06
-2.19157e-16
5.23599e-06
6.43507e-15
5.93412e-06
-6.06401e-15
6.63225e-06
2.09162e-15
7.33038e-06
-1.61772e-14
8.02851e-06
1.88303e-14
8.72664e-06
2.34984e-15
9.42478e-06
-9.17275e-15
1.01229e-05
4.70902e-15
1.0821e-05
-2.16278e-14
1.15192e-05
2.96433e-14
1.22173e-05
9.28827e-15
1.29154e-05
1.89059e-14
1.36136e-05
-4.46719e-15
1.43117e-05
-3.0157e-14
1.50098e-05
2.62168e-14
1.5708e-05
-4.37656e-16
1.64061e-05
2.11689e-14
1.71042e-05
-1.87152e-14
1.78024e-05
3.91984e-15
1.85005e-05
2.91578e-14
1.91986e-05
-1.52379e-14
1.98967e-05
2.05949e-05
8.67607e-15
4.53785e-06
-1.22928e-14
5.23599e-06
-1.88332e-15
5.93412e-06
-8.90232e-15
6.63225e-06
5.10846e-15
7.33038e-06
2.19903e-14
8.02851e-06
-1.2265e-14
8.72664e-06
5.37373e-15
9.42478e-06
-4.45723e-15
1.01229e-05
1.43049e-14
1.0821e-05
7.32496e-15
1.15192e-05
-7.04168e-15
1.22173e-05
-2.39973e-14
1.29154e-05
7.55167e-15
1.36136e-05
-9.80296e-15
1.43117e-05
1.62354e-14
1.50098e-05
-4.02949e-14
1.5708e-05
-1.44457e-14
1.64061e-05
1.37031e-14
1.71042e-05
7.89498e-15
1.78024e-05
3.92508e-14
1.85005e-05
-4.27523e-14
1.91986e-05
8.84298e-15
1.98967e-05
2.05949e-05
-9.39898e-15
4.53785e-06
-5.20472e-16
5.23599e-06
-7.52874e-15
5.93412e-06
4.41128e-15
6.63225e-06
-3.78305e-15
7.33038e-06
-1.33854e-14
8.02851e-06
2.10877e-15
8.72664e-06
-8.52937e-15
9.42478e-06
1.00273e-14
1.01229e-05
-1.86733e-15
1.0821e-05
2.02018e-14
1.15192e-05
7.01119e-15
1.22173e-05
-7.51187e-15
1.29154e-05
-2.36104e-14
1.36136e-05
2.03959e-15
1.43117e-05
-1.48344e-14
1.50098e-05
1.38775e-14
1.5708e-05
-2.39072e-15
1.64061e-05
-2.04129e-14
1.71042e-05
7.01382e-15
1.78024e-05
-1.20674e-14
1.85005e-05
2.59345e-14
1.91986e-05
-1.85153e-15
1.98967e-05
2.05949e-05
1.13361e-14
4.53785e-06
4.81033e-16
5.23599e-06
5.35672e-15
5.93412e-06
1.1303e-14
6.63225e-06
-4.86938e-15
7.33038e-06
1.10949e-15
8.02851e-06
8.15716e-15
8.72664e-06
-1.30455e-14
9.42478e-06
-5.94953e-15
1.01229e-05
1.99621e-15
1.0821e-05
-2.43875e-14
1.15192e-05
-1.61906e-14
1.22173e-05
3.27843e-14
1.29154e-05
3.05131e-15
1.36136e-05
1.44381e-14
1.43117e-05
2.69003e-14
1.50098e-05
-7.74101e-15
1.5708e-05
4.43795e-15
1.64061e-05
1.79995e-14
1.71042e-05
-2.18248e-14
1.78024e-05
-8.21199e-15
1.85005e-05
6.07831e-15
1.91986e-05
-3.8925e-14
1.98967e-05
2.05949e-05
1.36948e-16
9.81747e-07
2.42086e-16
1.37445e-06
3.77013e-16
1.76715e-06
-1.33939e-15
2.15984e-06
-3.68158e-15
2.55254e-06
2.94524e-06
5.95124e-15
1.82254e-18
9.81747e-07
-3.88794e-16
1.37445e-06
-2.60418e-15
1.76715e-06
1.94353e-15
2.15984e-06
8.0661e-15
2.55254e-06
2.94524e-06
-9.03003e-15
-1.16473e-16
9.81747e-07
1.86365e-16
1.37445e-06
-1.56244e-15
1.76715e-06
-4.21266e-15
2.15984e-06
-7.49846e-15
2.55254e-06
2.94524e-06
7.72337e-16
8.6925e-17
9.81747e-07
-1.01946e-16
1.37445e-06
2.6931e-15
1.76715e-06
7.44287e-15
2.15984e-06
3.25982e-15
2.55254e-06
2.94524e-06
-2.79804e-15
-4.83797e-17
9.81747e-07
3.94621e-17
1.37445e-06
1.94282e-16
1.76715e-06
-1.8061e-15
2.15984e-06
-4.20861e-15
2.55254e-06
2.94524e-06
5.01312e-15
-1.80125e-16
9.81747e-07
4.27115e-18
1.37445e-06
-1.84775e-15
1.76715e-06
-3.88612e-15
2.15984e-06
3.15694e-15
2.55254e-06
2.94524e-06
4.98061e-16
2.53941e-16
9.81747e-07
2.5541e-16
1.37445e-06
2.06596e-15
1.76715e-06
4.50408e-15
2.15984e-06
-2.31016e-15
2.55254e-06
2.94524e-06
5.40866e-16
2.1656e-17
9.81747e-07
-3.21715e-16
1.37445e-06
-1.14892e-15
1.76715e-06
-5.28559e-15
2.15984e-06
-3.76972e-16
2.55254e-06
2.94524e-06
-5.63998e-15
-1.43418e-16
9.81747e-07
1.66374e-16
1.37445e-06
4.19103e-15
1.76715e-06
6.34938e-15
2.15984e-06
-8.05646e-16
2.55254e-06
2.94524e-06
8.392e-16
-6.8813e-17
9.81747e-07
-9.20873e-17
1.37445e-06
-2.76941e-15
1.76715e-06
-3.68827e-16
2.15984e-06
-1.45082e-15
2.55254e-06
2.94524e-06
-1.76615e-16
1.66328e-16
9.81747e-07
-8.87297e-17
1.37445e-06
5.69644e-16
1.76715e-06
-2.10356e-15
2.15984e-06
9.65975e-15
2.55254e-06
2.94524e-06
5.28992e-15
-1.77799e-16
9.81747e-07
-2.05615e-17
1.37445e-06
-3.45495e-16
1.76715e-06
-4.17258e-15
2.15984e-06
-2.62252e-15
2.55254e-06
2.94524e-06
5.36918e-15
1.77785e-16
9.81747e-07
2.04317e-17
1.37445e-06
3.45401e-16
1.76715e-06
4.17267e-15
2.15984e-06
2.62246e-15
2.55254e-06
2.94524e-06
-5.36954e-15
-1.66334e-16
9.81747e-07
8.86677e-17
1.37445e-06
-5.69752e-16
1.76715e-06
2.10357e-15
2.15984e-06
-9.66014e-15
2.55254e-06
2.94524e-06
-5.29002e-15
6.8799e-17
9.81747e-07
9.20618e-17
1.37445e-06
2.76931e-15
1.76715e-06
3.68737e-16
2.15984e-06
1.45082e-15
2.55254e-06
2.94524e-06
1.7684e-16
1.43377e-16
9.81747e-07
-1.66429e-16
1.37445e-06
-4.19119e-15
1.76715e-06
-6.3495e-15
2.15984e-06
8.05495e-16
2.55254e-06
2.94524e-06
-8.39377e-16
-2.16971e-17
9.81747e-07
3.21601e-16
1.37445e-06
1.14885e-15
1.76715e-06
5.28557e-15
2.15984e-06
3.76583e-16
2.55254e-06
2.94524e-06
5.63966e-15
-2.54006e-16
9.81747e-07
-2.55492e-16
1.37445e-06
-2.06605e-15
1.76715e-06
-4.50422e-15
2.15984e-06
2.30993e-15
2.55254e-06
2.94524e-06
-5.41056e-16
1.80101e-16
9.81747e-07
-4.31501e-18
1.37445e-06
1.84775e-15
1.76715e-06
3.88612e-15
2.15984e-06
-3.15712e-15
2.55254e-06
2.94524e-06
-4.98324e-16
4.83548e-17
9.81747e-07
-3.95284e-17
1.37445e-06
-1.94421e-16
1.76715e-06
1.80613e-15
2.15984e-06
4.20835e-15
2.55254e-06
2.94524e-06
-5.01344e-15
-8.69727e-17
9.81747e-07
1.019e-16
1.37445e-06
-2.69312e-15
1.76715e-06
-7.44291e-15
2.15984e-06
-3.25992e-15
2.55254e-06
2.94524e-06
2.79792e-15
1.16459e-16
9.81747e-07
-1.86414e-16
1.37445e-06
1.56235e-15
1.76715e-06
4.21245e-15
2.15984e-06
7.49837e-15
2.55254e-06
2.94524e-06
-7.72481e-16
-1.86362e-18
9.81747e-07
3.8877e-16
1.37445e-06
2.60414e-15
1.76715e-06
-1.94373e-15
2.15984e-06
-8.06621e-15
2.55254e-06
2.94524e-06
9.02967e-15
-1.36966e-16
-2.42116e-16
-3.77021e-16
1.33912e-15
3.68144e-15
-5.95136e-15
-1.13358e-14
4.53785e-06
-4.81407e-16
5.23599e-06
-5.35757e-15
5.93412e-06
-1.13037e-14
6.63225e-06
4.86915e-15
7.33038e-06
-1.1094e-15
8.02851e-06
-8.15884e-15
8.72664e-06
1.30429e-14
9.42478e-06
5.9499e-15
1.01229e-05
-1.99644e-15
1.0821e-05
2.43861e-14
1.15192e-05
1.61898e-14
1.22173e-05
-3.27873e-14
1.29154e-05
-3.05285e-15
1.36136e-05
-1.44437e-14
1.43117e-05
-2.69034e-14
1.50098e-05
7.7391e-15
1.5708e-05
-4.43759e-15
1.64061e-05
-1.80014e-14
1.71042e-05
2.18202e-14
1.78024e-05
8.21264e-15
1.85005e-05
-6.08731e-15
1.91986e-05
3.89152e-14
1.98967e-05
2.05949e-05
9.39892e-15
4.53785e-06
5.19929e-16
5.23599e-06
7.5282e-15
5.93412e-06
-4.41212e-15
6.63225e-06
3.78276e-15
7.33038e-06
1.33842e-14
8.02851e-06
-2.11008e-15
8.72664e-06
8.52738e-15
9.42478e-06
-1.00268e-14
1.01229e-05
1.86491e-15
1.0821e-05
-2.02027e-14
1.15192e-05
-7.01257e-15
1.22173e-05
7.51104e-15
1.29154e-05
2.36063e-14
1.36136e-05
-2.04338e-15
1.43117e-05
1.48317e-14
1.50098e-05
-1.388e-14
1.5708e-05
2.38997e-15
1.64061e-05
2.04119e-14
1.71042e-05
-7.01874e-15
1.78024e-05
1.20653e-14
1.85005e-05
-2.59451e-14
1.91986e-05
1.8449e-15
1.98967e-05
2.05949e-05
-8.67627e-15
4.53785e-06
1.2292e-14
5.23599e-06
1.88308e-15
5.93412e-06
8.9017e-15
6.63225e-06
-5.10896e-15
7.33038e-06
-2.19912e-14
8.02851e-06
1.22647e-14
8.72664e-06
-5.37489e-15
9.42478e-06
4.45693e-15
1.01229e-05
-1.43065e-14
1.0821e-05
-7.32797e-15
1.15192e-05
7.03956e-15
1.22173e-05
2.39944e-14
1.29154e-05
-7.55551e-15
1.36136e-05
9.79866e-15
1.43117e-05
-1.62381e-14
1.50098e-05
4.02926e-14
1.5708e-05
1.44436e-14
1.64061e-05
-1.37046e-14
1.71042e-05
-7.89995e-15
1.78024e-05
-3.92513e-14
1.85005e-05
4.27496e-14
1.91986e-05
-8.85377e-15
1.98967e-05
2.05949e-05
5.98576e-15
4.53785e-06
2.18838e-16
5.23599e-06
-6.43575e-15
5.93412e-06
6.0634e-15
6.63225e-06
-2.09283e-15
7.33038e-06
1.61771e-14
8.02851e-06
-1.88308e-14
8.72664e-06
-2.35068e-15
9.42478e-06
9.17094e-15
1.01229e-05
-4.71076e-15
1.0821e-05
2.16267e-14
1.15192e-05
-2.96465e-14
1.22173e-05
-9.29105e-15
1.29154e-05
-1.89074e-14
1.36136e-05
4.46494e-15
1.43117e-05
3.01564e-14
1.50098e-05
-2.62191e-14
1.5708e-05
4.35005e-16
1.64061e-05
-2.11749e-14
1.71042e-05
1.87133e-14
1.78024e-05
-3.92025e-15
1.85005e-05
-2.91576e-14
1.91986e-05
1.52296e-14
1.98967e-05
2.05949e-05
6.71467e-15
4.53785e-06
-7.30667e-15
5.23599e-06
1.11008e-14
5.93412e-06
-4.24115e-15
6.63225e-06
1.5102e-14
7.33038e-06
-5.20926e-15
8.02851e-06
1.70129e-14
8.72664e-06
-3.9409e-15
9.42478e-06
-2.95272e-16
1.01229e-05
6.61069e-15
1.0821e-05
1.37048e-14
1.15192e-05
1.01842e-14
1.22173e-05
1.82161e-14
1.29154e-05
1.43676e-14
1.36136e-05
2.33389e-14
1.43117e-05
-2.53449e-14
1.50098e-05
2.90706e-14
1.5708e-05
-7.82712e-15
1.64061e-05
3.54142e-14
1.71042e-05
-4.51265e-15
1.78024e-05
4.23691e-14
1.85005e-05
-5.87609e-16
1.91986e-05
-8.73773e-15
1.98967e-05
2.05949e-05
-4.63074e-15
4.53785e-06
5.79751e-15
5.23599e-06
-1.61504e-14
5.93412e-06
-5.97478e-15
6.63225e-06
-8.55495e-15
7.33038e-06
4.22307e-15
8.02851e-06
-8.18801e-15
8.72664e-06
6.99934e-15
9.42478e-06
-2.42299e-14
1.01229e-05
-7.77009e-15
1.0821e-05
-2.27653e-14
1.15192e-05
8.35058e-15
1.22173e-05
-7.40502e-15
1.29154e-05
2.82652e-14
1.36136e-05
-4.57122e-14
1.43117e-05
-8.22358e-15
1.50098e-05
-2.82301e-14
1.5708e-05
-2.33855e-15
1.64061e-05
-6.9475e-15
1.71042e-05
2.21466e-14
1.78024e-05
-3.41095e-14
1.85005e-05
-3.74274e-15
1.91986e-05
-3.23507e-14
1.98967e-05
2.05949e-05
-8.92517e-15
4.53785e-06
-2.28911e-15
5.23599e-06
-2.22414e-15
5.93412e-06
6.61644e-15
6.63225e-06
-3.3887e-15
7.33038e-06
-3.90754e-15
8.02851e-06
-6.41901e-15
8.72664e-06
-7.15809e-15
9.42478e-06
6.80918e-15
1.01229e-05
6.98343e-15
1.0821e-05
-9.06502e-15
1.15192e-05
6.76022e-15
1.22173e-05
-2.88899e-14
1.29154e-05
-1.22361e-14
1.36136e-05
4.8014e-15
1.43117e-05
2.50256e-14
1.50098e-05
3.85768e-15
1.5708e-05
3.60698e-15
1.64061e-05
-2.04856e-14
1.71042e-05
-2.17625e-14
1.78024e-05
3.4637e-15
1.85005e-05
2.90389e-14
1.91986e-05
-1.66233e-15
1.98967e-05
2.05949e-05
6.21548e-15
4.53785e-06
-3.87955e-15
5.23599e-06
1.54213e-14
5.93412e-06
-7.06541e-15
6.63225e-06
-2.21061e-15
7.33038e-06
1.42894e-15
8.02851e-06
-5.4932e-15
8.72664e-06
1.3224e-14
9.42478e-06
6.04669e-15
1.01229e-05
-1.74511e-14
1.0821e-05
2.0888e-14
1.15192e-05
-2.14457e-14
1.22173e-05
1.91336e-14
1.29154e-05
-7.3169e-15
1.36136e-05
3.84836e-14
1.43117e-05
-1.29221e-14
1.50098e-05
-1.88436e-15
1.5708e-05
5.71575e-15
1.64061e-05
-7.58755e-15
1.71042e-05
2.76559e-14
1.78024e-05
1.40946e-14
1.85005e-05
-5.31482e-14
1.91986e-05
3.90832e-14
1.98967e-05
2.05949e-05
-1.49884e-15
4.53785e-06
1.08969e-14
5.23599e-06
-6.59979e-15
5.93412e-06
7.2658e-15
6.63225e-06
6.17547e-15
7.33038e-06
2.48827e-15
8.02851e-06
-9.6433e-16
8.72664e-06
-4.36633e-15
9.42478e-06
-8.90122e-15
1.01229e-05
1.38635e-14
1.0821e-05
1.06914e-14
1.15192e-05
6.24947e-15
1.22173e-05
-1.26596e-16
1.29154e-05
-3.4383e-15
1.36136e-05
-1.10448e-14
1.43117e-05
-1.77656e-14
1.50098e-05
1.76807e-14
1.5708e-05
9.9531e-15
1.64061e-05
3.32734e-15
1.71042e-05
-3.2969e-14
1.78024e-05
-1.04231e-14
1.85005e-05
3.00623e-14
1.91986e-05
-5.9995e-14
1.98967e-05
2.05949e-05
5.17005e-15
4.53785e-06
-7.4555e-15
5.23599e-06
-7.57114e-16
5.93412e-06
6.83917e-15
6.63225e-06
-9.97424e-15
7.33038e-06
-1.66482e-15
8.02851e-06
9.21842e-15
8.72664e-06
-1.34587e-14
9.42478e-06
2.32199e-14
1.01229e-05
1.04722e-14
1.0821e-05
-1.72725e-14
1.15192e-05
-3.02845e-15
1.22173e-05
1.13981e-14
1.29154e-05
-1.98183e-14
1.36136e-05
-4.68035e-15
1.43117e-05
5.03062e-14
1.50098e-05
-2.40456e-14
1.5708e-05
-6.65927e-15
1.64061e-05
1.42572e-14
1.71042e-05
1.65331e-15
1.78024e-05
-6.81196e-15
1.85005e-05
1.4437e-14
1.91986e-05
5.07591e-14
1.98967e-05
2.05949e-05
-6.19749e-15
4.53785e-06
2.85201e-17
5.23599e-06
1.15114e-14
5.93412e-06
-2.06258e-14
6.63225e-06
5.3659e-15
7.33038e-06
1.22065e-15
8.02851e-06
-4.81523e-17
8.72664e-06
1.23939e-14
9.42478e-06
-1.32267e-14
1.01229e-05
-1.88954e-14
1.0821e-05
-4.96501e-15
1.15192e-05
-7.15473e-15
1.22173e-05
-1.48884e-14
1.29154e-05
3.53359e-14
1.36136e-05
-9.01465e-19
1.43117e-05
-4.31395e-14
1.50098e-05
1.35631e-14
1.5708e-05
-2.82573e-14
1.64061e-05
2.45543e-15
1.71042e-05
-1.02407e-14
1.78024e-05
2.37998e-14
1.85005e-05
1.3873e-14
1.91986e-05
-4.55636e-14
1.98967e-05
2.05949e-05
-1.90692e-15
4.53785e-06
1.13068e-15
5.23599e-06
-2.1662e-14
5.93412e-06
9.6237e-15
6.63225e-06
1.5137e-14
7.33038e-06
-1.40658e-14
8.02851e-06
8.09231e-15
8.72664e-06
-2.69594e-14
9.42478e-06
-1.96605e-15
1.01229e-05
2.97162e-14
1.0821e-05
-1.17466e-14
1.15192e-05
1.98671e-14
1.22173e-05
-2.74456e-14
1.29154e-05
-2.06163e-14
1.36136e-05
1.60434e-14
1.43117e-05
-4.61386e-15
1.50098e-05
4.6923e-15
1.5708e-05
4.79638e-14
1.64061e-05
-1.37429e-14
1.71042e-05
3.23692e-14
1.78024e-05
-3.51902e-14
1.85005e-05
-2.49074e-14
1.91986e-05
7.19125e-14
1.98967e-05
2.05949e-05
1.90633e-15
4.53785e-06
-1.13092e-15
5.23599e-06
2.16618e-14
5.93412e-06
-9.62399e-15
6.63225e-06
-1.51378e-14
7.33038e-06
1.40643e-14
8.02851e-06
-8.09385e-15
8.72664e-06
2.69592e-14
9.42478e-06
1.96506e-15
1.01229e-05
-2.97175e-14
1.0821e-05
1.17447e-14
1.15192e-05
-1.98686e-14
1.22173e-05
2.7443e-14
1.29154e-05
2.06141e-14
1.36136e-05
-1.60423e-14
1.43117e-05
4.61061e-15
1.50098e-05
-4.69397e-15
1.5708e-05
-4.79703e-14
1.64061e-05
1.37343e-14
1.71042e-05
-3.23754e-14
1.78024e-05
3.51831e-14
1.85005e-05
2.49038e-14
1.91986e-05
-7.192e-14
1.98967e-05
2.05949e-05
6.19711e-15
4.53785e-06
-2.87348e-17
5.23599e-06
-1.15121e-14
5.93412e-06
2.06259e-14
6.63225e-06
-5.36756e-15
7.33038e-06
-1.22194e-15
8.02851e-06
4.69109e-17
8.72664e-06
-1.23947e-14
9.42478e-06
1.32257e-14
1.01229e-05
1.8893e-14
1.0821e-05
4.96302e-15
1.15192e-05
7.15277e-15
1.22173e-05
1.48872e-14
1.29154e-05
-3.53404e-14
1.36136e-05
-4.97795e-19
1.43117e-05
4.31318e-14
1.50098e-05
-1.35645e-14
1.5708e-05
2.82537e-14
1.64061e-05
-2.45629e-15
1.71042e-05
1.02357e-14
1.78024e-05
-2.38074e-14
1.85005e-05
-1.38769e-14
1.91986e-05
4.5557e-14
1.98967e-05
2.05949e-05
-5.1705e-15
4.53785e-06
7.45511e-15
5.23599e-06
7.56642e-16
5.93412e-06
-6.84045e-15
6.63225e-06
9.97366e-15
7.33038e-06
1.66359e-15
8.02851e-06
-9.22024e-15
8.72664e-06
1.3459e-14
9.42478e-06
-2.32223e-14
1.01229e-05
-1.04733e-14
1.0821e-05
1.72728e-14
1.15192e-05
3.02657e-15
1.22173e-05
-1.13989e-14
1.29154e-05
1.98143e-14
1.36136e-05
4.67953e-15
1.43117e-05
-5.0307e-14
1.50098e-05
2.40444e-14
1.5708e-05
6.65438e-15
1.64061e-05