/*--------------------------------*- C++ -*----------------------------------*\
  =========                 |
  \\      /  F ield         | OpenFOAM: The Open Source CFD Toolbox
   \\    /   O peration     | Website:  https://openfoam.org
    \\  /    A nd           | Version:  11
     \\/     M anipulation  |
\*---------------------------------------------------------------------------*/
FoamFile
{
    format      ascii;
    class       volScalarField;
    location    "1.62";
    object      nut;
}
// * * * * * * * * * * * * * * * * * * * * * * * * * * * * * * * * * * * * * //

dimensions      [0 2 -1 0 0 0 0];

internalField   nonuniform List<scalar> 
2880
(
8.06705e-07
4.05788e-06
1.92532e-05
5.67265e-05
0.000119252
4.60056e-05
2.90179e-05
4.63192e-05
9.97331e-05
0.00018716
0.000290509
0.000347943
0.000169695
0.000111328
0.000202902
0.000327925
0.000467191
0.000623669
0.000186509
0.000172609
0.000294127
0.000444424
0.000605729
0.000774069
4.70581e-05
0.000226693
0.000369412
0.000532515
0.000696147
0.000849189
4.91125e-05
0.000270941
0.000428845
0.000594671
0.000748697
0.000877988
5.06979e-05
0.000304929
0.000473638
0.000635184
0.000773779
0.000879418
5.19688e-05
0.000329556
0.000505444
0.00065851
0.000779934
0.000865229
5.28644e-05
0.000345882
0.000526044
0.000668606
0.000773559
0.000842873
5.34055e-05
0.000354906
0.000537314
0.000668713
0.000759118
0.000816631
5.36048e-05
0.000357826
0.00054046
0.000661317
0.000739512
0.000789249
5.35326e-05
0.000354575
0.000536862
0.000648266
0.000716645
0.000762002
5.31375e-05
0.000345591
0.00052748
0.000630856
0.000691592
0.000735358
5.25639e-05
0.000330283
0.000512985
0.000609933
0.000664774
0.000709272
5.17801e-05
0.000310224
0.000493541
0.000585697
0.000636491
0.00068352
5.07573e-05
0.000287085
0.000469488
0.000557889
0.000606396
0.000657776
4.94558e-05
0.000262916
0.000441447
0.000525897
0.000573374
0.000630889
4.77617e-05
0.000241316
0.000410222
0.000488797
0.000536085
0.000601985
0.000197597
0.000232051
0.000375546
0.000445364
0.000493082
0.000569061
0.000189764
0.000214147
0.000334212
0.000395056
0.000442555
0.000529061
0.000177963
0.000182974
0.000278842
0.000333197
0.000382043
0.000478062
0.000162204
0.000132615
0.000201856
0.000249619
0.000304004
0.000410222
2.85122e-05
6.03022e-05
0.000100761
0.000134578
0.000191859
0.000306874
8.41113e-07
3.33157e-06
9.12594e-06
1.82602e-05
3.99104e-05
0.000172234
0.000791288
0.00114738
0.0012773
0.00133363
0.00135089
0.00135718
0.00135499
0.00133147
0.00129164
0.00125158
0.00122012
0.00120691
0.00121969
0.00126116
0.00132848
0.00141946
0.00154015
0.00170847
0.00195177
0.00229417
0.00268863
0.00313629
0.00356363
0.00386823
0.000899152
0.00114558
0.00124559
0.0012851
0.00130231
0.0013039
0.00128731
0.00125548
0.00122502
0.00120543
0.00120524
0.00122888
0.00127527
0.00134074
0.00142558
0.00153774
0.00169366
0.00191757
0.00223598
0.00264601
0.00309852
0.00358962
0.00401336
0.00430926
0.000972314
0.00114022
0.00121326
0.00124351
0.00125238
0.00124436
0.00122175
0.00120135
0.00119271
0.00120255
0.00123238
0.00127967
0.00134246
0.00142353
0.00153086
0.00167766
0.00188312
0.00217131
0.00256268
0.00302428
0.00352373
0.0040273
0.00443673
0.00471732
0.00100492
0.00112427
0.00117403
0.00119888
0.00119828
0.00118784
0.0011771
0.00117804
0.00119549
0.00122925
0.00127706
0.00133879
0.00141819
0.0015221
0.00166055
0.00184823
0.00210553
0.00245445
0.00290607
0.00340344
0.00392872
0.00442276
0.0048218
0.00507013
0.00100875
0.00109602
0.0011413
0.00114564
0.00114859
0.00114876
0.0011587
0.00118287
0.00122057
0.00127006
0.00133197
0.00140993
0.00150981
0.00163972
0.00181121
0.00204064
0.00234809
0.00274995
0.00324522
0.00376119
0.00429096
0.00476228
0.0051432
0.00535604
0.000993129
0.0010572
0.00108929
0.00109909
0.0011132
0.0011324
0.00116388
0.00120688
0.00125946
0.0013221
0.00139813
0.00149315
0.00161471
0.00177258
0.0019794
0.00225086
0.00260302
0.0030439
0.00356151
0.00407787
0.00459133
0.0050298
0.00538313
0.00556405
0.000965619
0.00102117
0.00103969
0.00106688
0.00109611
0.00113679
0.0011872
0.0012445
0.00130855
0.0013826
0.00147255
0.00158617
0.00173252
0.0019216
0.00216455
0.00247344
0.00285821
0.00331886
0.00383602
0.00433597
0.00481454
0.0052173
0.00552947
0.00568729
0.000931042
0.000981682
0.0010018
0.00104779
0.00109895
0.00115903
0.00122338
0.00129058
0.00136362
0.00144889
0.00155484
0.00169063
0.00186512
0.00208645
0.00236221
0.00269919
0.00310073
0.00356051
0.004056
0.00452549
0.00495503
0.00531389
0.00558123
0.00571761
0.0008938
0.000939553
0.000978287
0.00104451
0.0011179
0.00119318
0.00126687
0.00134113
0.00142283
0.00152137
0.00164677
0.00180807
0.00201232
0.00226426
0.00256658
0.00291998
0.00332151
0.00376061
0.00421496
0.00464087
0.00500914
0.00531313
0.00553648
0.00565111
0.000858409
0.00090139
0.00097056
0.00105889
0.0011493
0.00123442
0.00131395
0.00139448
0.00148647
0.00160143
0.00174971
0.00193885
0.00217275
0.0024516
0.00277251
0.00313004
0.00351589
0.00391706
0.00431387
0.00468075
0.00498005
0.00521617
0.00539229
0.0054827
0.000827133
0.000871734
0.00097721
0.00108563
0.00118817
0.00127922
0.00136311
0.00145079
0.00155569
0.00169044
0.00186444
0.00208244
0.00234415
0.00264477
0.00297595
0.00332679
0.00368467
0.0040353
0.00436244
0.00464856
0.00487761
0.00503349
0.0051424
0.00520314
0.000799543
0.000856394
0.000993008
0.00111888
0.00123026
0.00132543
0.00141388
0.0015107
0.00163161
0.00178926
0.00199084
0.00223725
0.00252362
0.00284042
0.00317462
0.00351096
0.00383337
0.00412636
0.0043763
0.00457224
0.00470649
0.00477538
0.00478368
0.00477272
0.000775231
0.000852905
0.00101629
0.00115693
0.00127471
0.0013731
0.001467
0.00157529
0.00171517
0.00189809
0.00212787
0.00240096
0.00270812
0.00303587
0.00336776
0.00368553
0.00397064
0.00420618
0.0043788
0.00447986
0.00450406
0.00444359
0.00428751
0.00403806
0.000753051
0.000856705
0.00104436
0.00119844
0.00132099
0.00142236
0.00152305
0.00164523
0.00180661
0.00201625
0.00227367
0.00257078
0.00289457
0.00322883
0.00355511
0.0038537
0.0041049
0.00429066
0.00439593
0.00440873
0.00431533
0.0040818
0.0036115
0.00283311
0.000732152
0.000866301
0.00107867
0.0012433
0.00136904
0.00147351
0.00158248
0.00172076
0.00190552
0.00214233
0.00242578
0.00274355
0.00307982
0.00341687
0.00373564
0.00401642
0.00423992
0.00438858
0.00444734
0.0044039
0.00424813
0.00397094
0.00356031
0.00305885
0.000711918
0.000881
0.00111815
0.00129077
0.00141879
0.00152684
0.00164558
0.00180168
0.00201087
0.00227438
0.00258142
0.00291599
0.00326056
0.00359701
0.00390669
0.00417087
0.0043719
0.00449434
0.00452595
0.00445785
0.00428439
0.0040037
0.00362185
0.00320348
0.000691856
0.000901236
0.00116096
0.00134048
0.00147041
0.00158259
0.00171225
0.00188715
0.00212099
0.0024101
0.00273773
0.00308492
0.00343354
0.00376595
0.00406458
0.00431215
0.00449293
0.004594
0.00460626
0.00452456
0.00434749
0.00407783
0.00372651
0.00334631
0.000671699
0.000926657
0.00120679
0.00139278
0.0015243
0.00164096
0.00178201
0.00197567
0.0022337
0.00254728
0.00289213
0.0032476
0.00359597
0.00392085
0.00420606
0.00443592
0.00459659
0.0046775
0.00467236
0.00457924
0.00440016
0.00414135
0.00381591
0.00345874
0.000651602
0.000956711
0.00125648
0.00144834
0.00158091
0.00170167
0.00185341
0.00206604
0.00234757
0.00268427
0.00304264
0.0034019
0.00374584
0.00405976
0.00432901
0.00453942
0.00467882
0.00473869
0.00471516
0.00460906
0.00442517
0.00417222
0.00386417
0.0035242
0.000632044
0.000991209
0.00131207
0.00150797
0.00164043
0.0017633
0.00192611
0.00215842
0.00246282
0.00282008
0.00318775
0.00354637
0.00388195
0.00418172
0.00443254
0.00462154
0.00473802
0.00477531
0.00473187
0.00461123
0.00442086
0.00417149
0.00387736
0.00355461
0.000613972
0.00103147
0.00137187
0.00157251
0.0017017
0.00182615
0.0020008
0.00225331
0.00257944
0.0029536
0.00332631
0.00368008
0.00400374
0.00428653
0.00451658
0.00468211
0.00477365
0.00478629
0.00472094
0.00458395
0.00438562
0.00413871
0.00385822
0.0035581
0.000599097
0.00108846
0.00143678
0.00164227
0.00176542
0.00189097
0.00207829
0.00235115
0.00269726
0.00308431
0.00345763
0.00380262
0.00411126
0.00437456
0.0045817
0.00472162
0.00478597
0.00477166
0.00468233
0.00452766
0.00432116
0.00407792
0.00381418
0.00354398
0.000589682
0.0011669
0.00151608
0.00171878
0.0018324
0.00195864
0.00215941
0.00245226
0.00281591
0.00321188
0.00358122
0.00391392
0.00420492
0.00444667
0.00462894
0.00474118
0.00477605
0.00473265
0.00461793
0.00444561
0.00423279
0.00399687
0.0037549
0.00352061
0.000589321
0.00124152
0.00162056
0.00180374
0.00190308
0.0020298
0.00224472
0.00255669
0.00293489
0.00333554
0.0036966
0.00401413
0.00428549
0.00450405
0.00465976
0.00474239
0.0047458
0.0046718
0.00453154
0.00434346
0.0041283
0.00390497
0.00368979
0.00349422
1.24318e-06
1.36698e-05
4.80354e-05
0.000115081
0.000197509
5.99122e-05
3.75423e-05
0.00011276
0.000216151
0.000350696
0.00042377
0.000520838
5.27627e-05
0.00023576
0.000411566
0.000610257
0.000788928
0.000984849
5.88509e-05
0.000344494
0.000590364
0.000842327
0.00108599
0.00134232
6.35933e-05
0.000433793
0.000743516
0.00103722
0.00131722
0.00158944
6.73485e-05
0.000504744
0.000870246
0.00119571
0.00149445
0.00176129
7.03386e-05
0.000559813
0.000972244
0.00132121
0.00162823
0.00188077
7.26658e-05
0.000601672
0.00105192
0.00141762
0.00172747
0.00196313
7.44059e-05
0.000632592
0.00111167
0.00148867
0.00179828
0.00201841
7.56248e-05
0.000654237
0.0011536
0.00153768
0.00184528
0.00205301
7.63723e-05
0.00066771
0.00117932
0.00156713
0.00187185
0.00207107
7.66822e-05
0.000673656
0.00118989
0.00157828
0.0018803
0.00207502
7.65783e-05
0.00067234
0.00118591
0.00157202
0.00187232
0.00206563
7.60567e-05
0.000663714
0.0011675
0.00154869
0.00184853
0.00204378
7.51107e-05
0.000647444
0.00113438
0.00150784
0.00180814
0.00200858
7.37125e-05
0.000622912
0.0010858
0.00144857
0.00174859
0.00195757
7.18154e-05
0.000589179
0.00102064
0.00136911
0.00166722
0.00188829
6.93494e-05
0.000544957
0.000937343
0.00126704
0.00156039
0.00179494
6.62152e-05
0.000488556
0.000834009
0.00113918
0.00142337
0.00166911
6.22744e-05
0.000417917
0.000708659
0.00098236
0.00125023
0.00149693
5.73328e-05
0.000330842
0.000559686
0.000793681
0.00103325
0.00125837
5.11065e-05
0.000225631
0.000387526
0.000571874
0.000759722
0.000923166
3.47646e-05
0.000105996
0.000199566
0.000324485
0.000416129
0.000491438
1.03531e-06
1.08643e-05
3.93691e-05
9.99498e-05
0.000192819
5.8132e-05
0.000641321
0.00141493
0.00175402
0.00189534
0.00197634
0.00210427
0.00233414
0.00266394
0.0030535
0.00345394
0.00380335
0.00410367
0.00435403
0.00454818
0.00467597
0.00472739
0.00469789
0.00459287
0.00442862
0.00422866
0.00401668
0.00381145
0.00362637
0.00346879
0.00118979
0.00169135
0.00189562
0.00198476
0.00204866
0.00218071
0.00242671
0.00277289
0.00317068
0.00356561
0.00390125
0.0041832
0.00441181
0.00458081
0.00467969
0.0046988
0.00463583
0.00450075
0.00431582
0.00410938
0.00390656
0.00372374
0.00356955
0.00344637
0.0015395
0.00187174
0.00200201
0.00206026
0.00211627
0.00225742
0.00252087
0.00288184
0.00328491
0.00367053
0.00399077
0.00425373
0.00446032
0.00460383
0.00467326
0.00465963
0.00456369
0.004401
0.00420016
0.0039933
0.00380479
0.0036466
0.00352166
0.00342775
0.00176728
0.00199734
0.00208171
0.00212339
0.00217919
0.00233353
0.00261507
0.00298904
0.00339486
0.0037685
0.00407244
0.00431638
0.00450112
0.00461921
0.00465919
0.00461321
0.00448594
0.00429939
0.00408821
0.00388656
0.00371578
0.00358216
0.00348315
0.00341295
0.00192326
0.00208702
0.00214274
0.00217678
0.00223788
0.00240817
0.00270768
0.00309285
0.0034994
0.00385941
0.00414693
0.0043723
0.00453579
0.00462898
0.00464007
0.00456294
0.00440706
0.00420128
0.00398533
0.00379322
0.00364147
0.00353048
0.00345328
0.0034016
0.00203159
0.00215079
0.00219018
0.00222241
0.00229257
0.00248035
0.00279711
0.00319178
0.00359762
0.00394334
0.00421495
0.00442268
0.00456587
0.0046351
0.00461849
0.00451222
0.00433126
0.00411115
0.00389524
0.00371528
0.00358198
0.00349046
0.00343076
0.0033931
0.00210662
0.00219586
0.00222756
0.00226166
0.0023432
0.00254897
0.00288188
0.00328456
0.00368881
0.00402049
0.00427728
0.00446868
0.0045929
0.00463954
0.00459698
0.00446427
0.00426221
0.00403241
0.00382004
0.00365307
0.0035363
0.00346061
0.00341424
0.00338687
0.00215774
0.00222721
0.00225719
0.00229533
0.00238941
0.00261286
0.00296063
0.00337014
0.00377237
0.00409109
0.00433469
0.00451147
0.00461839
0.00464423
0.004578
0.00442207
0.00420297
0.00396735
0.00376054
0.00360589
0.00350287
0.00343929
0.00340253
0.00338252
0.00219115
0.0022482
0.00228045
0.00232371
0.00243053
0.00267081
0.00303217
0.00344773
0.00384748
0.00415535
0.00438793
0.00455212
0.00464374
0.00465097
0.00456382
0.00438816
0.00415584
0.00391724
0.00371658
0.00357252
0.00348023
0.00342446
0.00339483
0.00337977
0.00221099
0.002261
0.00229801
0.00234668
0.00246574
0.00272163
0.00309558
0.00351711
0.00391246
0.00421338
0.00443766
0.00459162
0.00467019
0.00466134
0.00455635
0.00436455
0.00412235
0.00388247
0.00368724
0.00355121
0.00346566
0.0034164
0.00339086
0.00337832
0.0022199
0.00226687
0.00231005
0.00236383
0.00249408
0.00276414
0.00314968
0.00357716
0.00396938
0.00426603
0.00448462
0.00463078
0.00469877
0.00467664
0.0045571
0.00435267
0.0041033
0.00386286
0.00367157
0.0035405
0.00345881
0.00341268
0.00338906
0.00337768
0.00221945
0.00226643
0.00231639
0.00237458
0.00251459
0.00279725
0.00319358
0.00362742
0.00401883
0.00431385
0.00452937
0.00467024
0.00473026
0.00469791
0.00456711
0.00435328
0.00409892
0.00385789
0.00366838
0.00353959
0.00346032
0.00341414
0.00338992
0.00337786
0.00220995
0.00225984
0.00231667
0.00237825
0.00252632
0.00282001
0.00322654
0.00366751
0.00406094
0.00435711
0.00457227
0.00471036
0.00476431
0.00472333
0.00458394
0.00436506
0.00410825
0.00386656
0.0036771
0.00354767
0.00346708
0.00341973
0.00339279
0.00337861
0.00219239
0.00224693
0.00231035
0.00237411
0.00252842
0.00283162
0.00324794
0.00369705
0.0040956
0.00439536
0.00461135
0.00474773
0.00479855
0.00475436
0.0046143
0.00439249
0.00413283
0.00388925
0.00369717
0.00356423
0.00347965
0.00342828
0.00339784
0.00338013
0.00216553
0.00222725
0.00229677
0.00236149
0.00252013
0.0028314
0.00325727
0.00371553
0.00412179
0.00442761
0.00464824
0.00478728
0.0048405
0.00479817
0.00465526
0.0044314
0.00417097
0.00392492
0.00372819
0.00358915
0.00349813
0.00344061
0.00340464
0.0033822
0.00212876
0.00220011
0.00227508
0.00233957
0.00250082
0.00281888
0.00325421
0.00372296
0.00414061
0.00445606
0.00468452
0.00483044
0.00488755
0.00484566
0.00470366
0.00448193
0.00422195
0.003973
0.00376986
0.00362243
0.00352265
0.00345691
0.00341366
0.00338504
0.00208003
0.00216463
0.00224407
0.00230763
0.00247001
0.00279378
0.00323857
0.00371914
0.00415141
0.00447951
0.00471861
0.00487244
0.00493476
0.00489716
0.00476032
0.00454307
0.00428485
0.00403292
0.0038221
0.00366427
0.00355356
0.00347756
0.00342523
0.00338882
0.00201649
0.00211985
0.00220159
0.00226493
0.00242746
0.00275604
0.00321036
0.00370388
0.00415353
0.00449675
0.00474835
0.00491208
0.00498276
0.00495315
0.00482409
0.00461357
0.0043586
0.00410406
0.00388478
0.00371497
0.00359133
0.00350305
0.00343974
0.00339381
0.00193369
0.0020633
0.00214738
0.00221136
0.00237331
0.00270597
0.0031698
0.00367721
0.00414657
0.00450728
0.00477385
0.00495012
0.00503173
0.00501248
0.00489359
0.00469198
0.00444191
0.00418563
0.00395774
0.00377481
0.00363649
0.00353391
0.00345763
0.00340021
0.00182526
0.00199158
0.00208055
0.00214687
0.002308
0.00264422
0.00311754
0.00363949
0.00413014
0.00451048
0.00479428
0.00498546
0.00508037
0.00507378
0.00496728
0.00477664
0.00453328
0.00427658
0.00404057
0.00384396
0.00368951
0.0035707
0.00347935
0.00340826
0.00167964
0.00189963
0.00199913
0.00207121
0.00223219
0.00257192
0.00305472
0.00359164
0.00410357
0.00450567
0.00480878
0.005017
0.00512735
0.00513551
0.00504343
0.00486573
0.00463099
0.00437559
0.00413256
0.00392235
0.00375076
0.00361395
0.00350534
0.00341816
0.00147651
0.00177953
0.00189981
0.00198384
0.00214686
0.00249078
0.00298316
0.00353514
0.00406663
0.00449237
0.00481655
0.00504364
0.0051713
0.0051961
0.00512026
0.0049573
0.00473309
0.004481
0.00423262
0.00400955
0.00382039
0.00366411
0.00353597
0.00343012
0.00116868
0.00161653
0.00177771
0.00188413
0.00205352
0.00240328
0.00290525
0.00347155
0.00402158
0.00447092
0.00481711
0.0050644
0.00521094
0.00525398
0.00519598
0.0050494
0.00483762
0.00459097
0.0043393
0.00410474
0.00389822
0.00372137
0.00357143
0.00344409
0.000646439
0.00138674
0.00163185
0.00177396
0.0019554
0.00231324
0.00282427
0.00340331
0.00397021
0.00444185
0.00481015
0.00507847
0.00524507
0.00530769
0.00526892
0.00514021
0.0049426
0.00470356
0.00445092
0.00420671
0.00398354
0.00378548
0.00361178
0.00346004
1.23685e-06
3.63379e-06
8.96439e-06
1.9113e-05
4.63223e-05
0.000199617
3.49604e-05
5.2297e-05
8.94949e-05
0.00012704
0.000184429
0.000291287
4.94065e-05
9.36715e-05
0.000164856
0.000217051
0.000281329
0.000401517
5.35558e-05
0.000124995
0.000220386
0.000279522
0.000346994
0.000471316
5.66016e-05
0.000156812
0.000268395
0.00032829
0.000395192
0.00050453
5.89786e-05
0.000190133
0.000310898
0.000367908
0.000436003
0.000534518
6.09135e-05
0.000224149
0.000347823
0.000400026
0.000469942
0.00055448
6.25131e-05
0.00025771
0.000379624
0.00042779
0.000497029
0.000571351
6.38303e-05
0.000289654
0.000407308
0.000454277
0.000521421
0.000586691
6.48971e-05
0.000318818
0.000431987
0.000480265
0.000542797
0.000601467
6.57391e-05
0.000343953
0.000454558
0.000505437
0.000560332
0.000616713
6.63816e-05
0.000363832
0.000475197
0.000529145
0.000576737
0.000632422
6.67683e-05
0.000378661
0.000493303
0.000551418
0.00059377
0.000648554
6.68032e-05
0.000388873
0.000508251
0.000572229
0.00061268
0.000665055
6.65189e-05
0.000393902
0.00051941
0.000591285
0.000632625
0.000682675
6.58526e-05
0.000392476
0.000525362
0.000607745
0.000652528
0.000700018
6.47807e-05
0.000383253
0.0005241
0.000619782
0.000672556
0.000716043
6.32426e-05
0.000364492
0.000513015
0.000623759
0.000689192
0.00073495
6.11391e-05
0.000333648
0.000488677
0.00061494
0.000697299
0.000747124
5.83108e-05
0.000288104
0.000446283
0.000585983
0.000684077
0.000744688
5.4491e-05
0.000227447
0.000380664
0.000527177
0.000638966
0.00070604
4.91712e-05
0.000152903
0.000286776
0.000428434
0.000545903
0.000594252
3.16855e-05
6.99782e-05
0.000163517
0.000279827
0.000385907
0.000354774
1.20025e-06
1.13074e-05
4.26947e-05
9.98653e-05
0.000169005
4.68289e-05
0.000612209
0.0012935
0.00152178
0.00167154
0.00186237
0.00222615
0.00274376
0.00333287
0.003914
0.00440566
0.00479546
0.00508513
0.00527263
0.0053559
0.00533753
0.00522797
0.00504613
0.00481677
0.00456553
0.00431379
0.00407521
0.0038558
0.0036568
0.00347784
0.000624437
0.00124546
0.00147084
0.00160584
0.00179143
0.00215252
0.00266837
0.00326222
0.00385394
0.00436271
0.00477285
0.00508378
0.00529267
0.00539741
0.00540036
0.00531102
0.00514634
0.00492852
0.00468096
0.00442398
0.0041716
0.00393125
0.00370597
0.00349724
0.00063987
0.00118195
0.0014347
0.00156276
0.00174237
0.00209272
0.00260032
0.00319177
0.00379029
0.00431306
0.00474207
0.00507383
0.00530433
0.00543107
0.00545605
0.00538776
0.00524137
0.00503669
0.0047949
0.00453493
0.0042706
0.00401022
0.00375825
0.00351767
0.000659772
0.00114992
0.00138299
0.00152662
0.00170185
0.00204236
0.00253751
0.00312181
0.0037228
0.00425648
0.00470271
0.00505466
0.00530675
0.00545579
0.00550325
0.00545663
0.00532939
0.00513917
0.00490497
0.0046441
0.00436974
0.00409048
0.00381183
0.00353802
0.00068215
0.00112252
0.00133406
0.00148699
0.00166738
0.00199623
0.00247673
0.00305104
0.00365057
0.00419245
0.00465427
0.00502562
0.00529906
0.00547049
0.00554067
0.00551609
0.00540863
0.0052339
0.00500878
0.00474885
0.00446629
0.00416946
0.00386451
0.00355669
0.000704989
0.00109852
0.00130141
0.00143923
0.00163275
0.00195062
0.0024156
0.00297755
0.00357248
0.00412028
0.00459617
0.00498606
0.00528043
0.00547413
0.00556709
0.00556474
0.00547746
0.00531897
0.00510413
0.00484673
0.00455761
0.00424449
0.00391361
0.00357142
0.000725371
0.00107625
0.00126813
0.00139617
0.00159486
0.00190401
0.00235245
0.00290007
0.0034875
0.00403936
0.00452789
0.00493535
0.00525012
0.0054658
0.00558142
0.00560134
0.0055345
0.00539281
0.0051892
0.0049356
0.00464132
0.00431292
0.00395616
0.00357929
0.000742409
0.00105473
0.00123471
0.00135866
0.00155336
0.00185469
0.00228569
0.00281768
0.00339495
0.0039493
0.00444898
0.00487295
0.00520745
0.00544476
0.00558289
0.0056251
0.00557891
0.0054545
0.00526291
0.00501416
0.00471579
0.00437275
0.00398954
0.00357697
0.000756133
0.00103351
0.00120156
0.00132384
0.0015081
0.00179965
0.00221381
0.00272928
0.00329485
0.00384983
0.00435903
0.00479835
0.00515189
0.0054105
0.00557111
0.00563584
0.00561078
0.00550442
0.00532583
0.00508303
0.0047815
0.004424
0.00401269
0.00356122
0.000766778
0.00101244
0.00116868
0.00128945
0.00145906
0.00173902
0.00213609
0.00263402
0.00318667
0.00374038
0.00425743
0.00471093
0.00508286
0.00536265
0.0055461
0.00563416
0.00563156
0.00554504
0.00538165
0.00514707
0.00484419
0.00447253
0.00402982
0.00353065
0.00077479
0.0009916
0.00113598
0.00125394
0.0014078
0.00167224
0.00205194
0.00253119
0.00306952
0.00362012
0.00414333
0.00460982
0.00499959
0.0053007
0.00550791
0.00562116
0.00564395
0.0055815
0.00543895
0.00521955
0.00492281
0.00454267
0.00406581
0.00349415
0.000780739
0.000971156
0.00110359
0.00121576
0.0013556
0.00159966
0.00195958
0.00241903
0.00294235
0.00348807
0.00401563
0.00449375
0.00490071
0.0052234
0.00545577
0.00559714
0.00565034
0.00561994
0.00551058
0.00532526
0.00506267
0.00471085
0.0042294
0.00352529
0.000785292
0.000951403
0.00107111
0.00116996
0.00130178
0.0015255
0.00186181
0.00229831
0.00280479
0.00334333
0.00387301
0.00436094
0.00478399
0.00512812
0.00538689
0.00555952
0.00564907
0.00566105
0.00560274
0.00548372
0.00531761
0.00512428
0.0049324
0.00478931
0.000789277
0.000932669
0.00104054
0.00112803
0.00124689
0.00145149
0.00175942
0.00216844
0.00265644
0.00318512
0.00371402
0.00420918
0.0046463
0.00501076
0.00529603
0.00550167
0.00563136
0.00569154
0.0056908
0.00564044
0.00555567
0.00545676
0.00537297
0.00533518
0.00079391
0.000915264
0.00100812
0.00108694
0.00119585
0.00137421
0.00165142
0.00203242
0.00249811
0.00301305
0.00353733
0.00403608
0.00448409
0.0048663
0.00517636
0.00541424
0.00558403
0.00569231
0.0057472
0.00575837
0.00573855
0.00570566
0.00567441
0.00566894
0.000799687
0.000900121
0.000978487
0.001047
0.00113962
0.00129446
0.00154165
0.0018915
0.0023306
0.00282706
0.00334183
0.00383942
0.00429378
0.00468962
0.00502074
0.00528735
0.00549344
0.00564466
0.00574786
0.00580784
0.00584604
0.00585671
0.00586207
0.00587504
0.000806185
0.000886034
0.000950282
0.00100683
0.00108356
0.00121488
0.00143103
0.00174685
0.00215486
0.00262739
0.00312684
0.00361737
0.00407232
0.00447618
0.00482295
0.00511297
0.00534979
0.00553572
0.0056733
0.0057896
0.00586427
0.0059102
0.00594181
0.00596722
0.000814902
0.000875373
0.000924188
0.000967875
0.00102855
0.00113634
0.00132067
0.00159988
0.00197221
0.00241483
0.00289231
0.00336894
0.00381759
0.00422267
0.00457849
0.00488574
0.00514394
0.00535395
0.00553627
0.00569037
0.00579701
0.00587329
0.00592647
0.00596172
0.000822737
0.000866875
0.000900578
0.00093089
0.000975479
0.00106002
0.00121219
0.00145256
0.00178466
0.00219099
0.00263922
0.00309433
0.003529
0.00392761
0.00428494
0.00460151
0.00486906
0.0051048
0.00532295
0.00550888
0.00564747
0.0057515
0.00582439
0.00586856
0.000820988
0.000857029
0.00087861
0.00089626
0.000925141
0.000986984
0.0011071
0.00130701
0.00159476
0.0019585
0.00236988
0.00279547
0.00320805
0.00359211
0.00394325
0.00425434
0.00453089
0.00478378
0.00502804
0.0052439
0.00541299
0.0055444
0.00563713
0.00569037
0.000791439
0.000836662
0.000853919
0.000862763
0.000878249
0.000919266
0.00100844
0.00116713
0.00140686
0.00172177
0.0020886
0.0024765
0.00285883
0.00322001
0.00355603
0.00385338
0.00413051
0.00439081
0.00464886
0.0048916
0.00508948
0.00524865
0.00536266
0.00542596
0.000701519
0.000790445
0.000816637
0.000824456
0.000831097
0.000854469
0.000915124
0.00103365
0.00122387
0.00148533
0.0018009
0.00214364
0.00248826
0.00281913
0.00313023
0.00340805
0.00367556
0.00393336
0.00418891
0.00444945
0.00467491
0.00486097
0.00499812
0.00507327
0.000543594
0.000690341
0.000751778
0.000774426
0.000782661
0.000795534
0.000832443
0.000913097
0.00105306
0.00125717
0.00151535
0.0018061
0.00210635
0.00240048
0.00268042
0.00293283
0.0031802
0.00342572
0.0036652
0.00392238
0.00417087
0.00438019
0.00454193
0.00463174
0.000308252
0.000493844
0.00062389
0.000681157
0.000707956
0.000724712
0.000750061
0.000802699
0.000898987
0.00104763
0.00124548
0.00147842
0.00172789
0.00197908
0.00222478
0.00244748
0.00266556
0.00288734
0.00310985
0.00333577
0.00358287
0.00381499
0.00399909
0.00410739
8.13957e-07
3.61228e-06
1.17001e-05
2.6467e-05
4.76567e-05
7.96512e-05
2.88298e-05
6.34748e-05
0.000116152
0.000170567
0.000225513
0.000263292
0.000164567
0.00014416
0.000241342
0.000332994
0.000413369
0.000455725
0.000180591
0.000207403
0.000347025
0.000470196
0.000570502
0.000626536
0.000191489
0.000251858
0.000431836
0.000581108
0.000698077
0.000770268
4.70191e-05
0.000279012
0.000500112
0.000671456
0.000802974
0.000890063
4.86868e-05
0.000305325
0.000554888
0.000744596
0.000888585
0.00098943
5.02155e-05
0.000330819
0.000599473
0.000803314
0.000958244
0.00107144
5.1475e-05
0.000354247
0.000635488
0.000849444
0.00101416
0.0011384
5.24165e-05
0.000374548
0.000663212
0.000884268
0.0010577
0.00119188
5.30796e-05
0.000390579
0.000682484
0.000908425
0.00108958
0.00123283
5.35005e-05
0.000401181
0.000692937
0.000922083
0.00111003
0.00126178
5.36587e-05
0.000405752
0.000694235
0.000924907
0.00111887
0.0012788
5.35412e-05
0.00040432
0.000685777
0.000916318
0.00111549
0.00128352
5.31132e-05
0.00039679
0.000667346
0.000895518
0.00109888
0.00127507
5.23664e-05
0.000382804
0.000638159
0.000861487
0.00106766
0.00125194
5.12921e-05
0.000361866
0.000597572
0.000813032
0.00101992
0.00121205
4.98995e-05
0.000333318
0.000544978
0.000748865
0.000953376
0.00115254
4.84142e-05
0.000296417
0.000479904
0.000667738
0.00086542
0.00107002
0.000198657
0.000250459
0.000402129
0.000568665
0.000753372
0.000960518
0.000186034
0.000193481
0.000311863
0.000451292
0.000615028
0.000819513
0.000169867
0.000126416
0.000210163
0.000316704
0.000450992
0.000641465
2.94345e-05
5.38031e-05
0.000101157
0.000170262
0.00026736
0.000424925
8.06619e-07
3.77747e-06
1.51284e-05
4.20755e-05
9.34554e-05
0.000193911
0.000212503
0.000379149
0.000498647
0.000582726
0.000617455
0.00064063
0.000662353
0.000695854
0.000755037
0.000851861
0.000990404
0.0011648
0.00136209
0.00156873
0.00177777
0.0019731
0.00215912
0.00235027
0.00254522
0.00274686
0.00295234
0.00317461
0.00338123
0.00352114
0.00026245
0.000346024
0.000413233
0.000489098
0.000532763
0.000553971
0.000574031
0.000599334
0.000639515
0.0006992
0.000785687
0.000900519
0.00103958
0.00119517
0.00136092
0.00153044
0.00168871
0.00184554
0.00200792
0.00217679
0.00235504
0.00253523
0.00271962
0.00289888
0.000427989
0.000427376
0.00045215
0.000477741
0.000511156
0.000521671
0.000523966
0.000534864
0.000554093
0.000582372
0.000627438
0.000691293
0.000773711
0.000872397
0.000984439
0.00110611
0.00123634
0.00136952
0.00150392
0.0016472
0.00179915
0.00195648
0.0021128
0.00228152
0.000620921
0.000584425
0.00057998
0.000597596
0.000609083
0.000615993
0.000611959
0.000601675
0.000592316
0.000591973
0.000607346
0.000630782
0.000664477
0.000710151
0.000768328
0.000838389
0.000920208
0.00100995
0.00110546
0.00120955
0.00132592
0.00144695
0.00158097
0.0017235
0.000792923
0.000770269
0.000762401
0.000770615
0.000789772
0.000804819
0.000809277
0.000812223
0.000809901
0.000806799
0.000802598
0.000801404
0.000803804
0.000811361
0.000824407
0.000842021
0.000866179
0.000897458
0.000936712
0.000985573
0.00104548
0.00111489
0.00119329
0.00131564
0.000938724
0.000945056
0.000950629
0.000967022
0.000991236
0.00102207
0.00104806
0.00107428
0.00109157
0.00110615
0.00112628
0.00113796
0.00114397
0.00114826
0.0011483
0.00114444
0.0011365
0.00112643
0.00111626
0.00110808
0.00110398
0.00110789
0.00111403
0.00116493
0.00106027
0.0010955
0.00112078
0.00115112
0.00118858
0.00123135
0.00127626
0.00132178
0.00136386
0.00140456
0.00144344
0.00147122
0.00149157
0.00151429
0.00152822
0.00152926
0.00152216
0.00150671
0.00148416
0.00145533
0.00142129
0.00138601
0.00134783
0.00134394
0.00116097
0.0012202
0.00126441
0.00130903
0.00135876
0.00141336
0.0014714
0.00153059
0.00158841
0.00164393
0.00169536
0.00174049
0.00178022
0.00180939
0.0018302
0.00185104
0.00185904
0.00185282
0.00183773
0.0018145
0.00178336
0.00174478
0.00170179
0.00167872
0.00124352
0.00132156
0.00138112
0.00143691
0.0014951
0.00155749
0.00162272
0.00168869
0.0017532
0.00181438
0.00187029
0.0019194
0.00196071
0.00199316
0.00201421
0.00203007
0.00204012
0.0020379
0.00202904
0.00201509
0.0019993
0.00198626
0.00197713
0.00197754
0.00131021
0.00140272
0.0014737
0.00153703
0.00160012
0.00166516
0.00173172
0.00179822
0.00186281
0.0019237
0.00197935
0.00202857
0.00207043
0.00210458
0.00212973
0.00214897
0.002162
0.00216599
0.00216351
0.00215556
0.00214352
0.00213004
0.00211988
0.00211666
0.00136259
0.00146654
0.00154545
0.00161307
0.00167683
0.00173977
0.00180221
0.00186317
0.00192128
0.00197527
0.00202397
0.00206695
0.00210334
0.00213349
0.00215809
0.00217769
0.00219432
0.00220708
0.00221578
0.00222084
0.00222315
0.00222369
0.00222181
0.00221414
0.00140194
0.00151546
0.0016002
0.00166932
0.00173063
0.0017878
0.00184178
0.00189227
0.00193853
0.00198003
0.00201639
0.00204583
0.00207037
0.00209097
0.00210733
0.00211969
0.00212647
0.00212919
0.00212937
0.0021288
0.00212877
0.00212936
0.00213116
0.00213716
0.00142892
0.00155134
0.00164076
0.00171001
0.00176713
0.00181626
0.00185889
0.00189522
0.00192584
0.00194996
0.00196489
0.00197167
0.00196804
0.00195485
0.001938
0.00192318
0.00191579
0.00191764
0.00192319
0.00193724
0.00195915
0.00198632
0.00201281
0.00202831
0.00144382
0.00157539
0.00166949
0.0017386
0.00179114
0.00183149
0.00186145
0.00188135
0.00188963
0.00188629
0.00187104
0.00184543
0.00181362