/*--------------------------------*- C++ -*----------------------------------*\
  =========                 |
  \\      /  F ield         | OpenFOAM: The Open Source CFD Toolbox
   \\    /   O peration     | Website:  https://openfoam.org
    \\  /    A nd           | Version:  11
     \\/     M anipulation  |
\*---------------------------------------------------------------------------*/
FoamFile
{
    format      ascii;
    class       surfaceScalarField;
    location    "1.62";
    object      phi;
}
// * * * * * * * * * * * * * * * * * * * * * * * * * * * * * * * * * * * * * //

dimensions      [0 3 -1 0 0 0 0];

internalField   nonuniform List<scalar> 
5640
(
-3.08099e-07
3.08099e-07
-1.03309e-06
7.24994e-07
-1.80357e-06
7.70476e-07
-2.2793e-06
4.75734e-07
-2.2169e-06
-6.24006e-08
-9.11719e-07
-1.30518e-06
-4.95312e-07
8.03411e-07
-1.21324e-06
1.44293e-06
-1.84084e-06
1.39807e-06
-2.19126e-06
8.26153e-07
-2.07579e-06
-1.77869e-07
-1.62407e-06
-1.36344e-06
-5.39925e-07
1.34334e-06
-1.19572e-06
2.09872e-06
-1.73958e-06
1.94194e-06
-2.0146e-06
1.10117e-06
-1.88694e-06
-3.05522e-07
-2.20413e-06
-1.30688e-06
-5.56933e-07
1.90027e-06
-1.13903e-06
2.68081e-06
-1.60878e-06
2.41169e-06
-1.82865e-06
1.32104e-06
-1.69388e-06
-4.4029e-07
-2.74274e-06
-1.15527e-06
-5.63089e-07
2.46336e-06
-1.06624e-06
3.18396e-06
-1.46531e-06
2.81075e-06
-1.64178e-06
1.49751e-06
-1.49384e-06
-5.88231e-07
-3.29673e-06
-9.39841e-07
-5.46631e-07
3.00999e-06
-9.76484e-07
3.61381e-06
-1.3123e-06
3.14657e-06
-1.45208e-06
1.63729e-06
-1.2839e-06
-7.56408e-07
-3.89245e-06
-6.88186e-07
-5.0334e-07
3.51333e-06
-8.69737e-07
3.98021e-06
-1.1511e-06
3.42792e-06
-1.25881e-06
1.74501e-06
-1.06813e-06
-9.47089e-07
-4.53712e-06
-4.2345e-07
-4.43536e-07
3.95687e-06
-7.48733e-07
4.28541e-06
-9.80919e-07
3.66011e-06
-1.06268e-06
1.82677e-06
-8.5373e-07
-1.15604e-06
-5.22312e-06
-1.67735e-07
-3.71455e-07
4.32832e-06
-6.15883e-07
4.52984e-06
-8.02812e-07
3.84704e-06
-8.65073e-07
1.88903e-06
-6.47966e-07
-1.37315e-06
-5.93336e-06
6.22719e-08
-2.8965e-07
4.61797e-06
-4.7264e-07
4.71283e-06
-6.17323e-07
3.99172e-06
-6.66987e-07
1.93869e-06
-4.56512e-07
-1.58363e-06
-6.6355e-06
2.45632e-07
-1.99986e-07
4.81796e-06
-3.20252e-07
4.83309e-06
-4.24674e-07
4.09614e-06
-4.68766e-07
1.98279e-06
-2.81849e-07
-1.77054e-06
-7.30014e-06
3.82787e-07
-1.04201e-07
4.92216e-06
-1.5991e-07
4.8888e-06
-2.24854e-07
4.16109e-06
-2.69972e-07
2.0279e-06
-1.25445e-07
-1.91507e-06
-7.89437e-06
4.68789e-07
-2.20897e-09
4.92437e-06
6.1136e-09
4.88048e-06
-1.85506e-08
4.18575e-06
-6.87965e-08
2.07815e-06
3.88659e-09
-1.98775e-06
-8.39329e-06
5.02804e-07
9.89734e-08
4.82539e-06
1.79504e-07
4.79995e-06
1.96848e-07
4.16841e-06
1.38653e-07
2.13634e-06
1.41818e-07
-1.99092e-06
-8.74079e-06
4.89318e-07
2.0298e-07
4.62241e-06
3.55524e-07
4.64741e-06
4.18437e-07
4.1055e-06
3.54582e-07
2.2002e-06
2.66436e-07
-1.90277e-06
-8.90935e-06
4.34996e-07
3.07359e-07
4.31505e-06
5.32948e-07
4.42182e-06
6.46231e-07
3.99221e-06
5.83197e-07
2.26323e-06
3.95509e-07
-1.71508e-06
-8.86759e-06
3.53752e-07
4.15293e-07
3.89976e-06
7.0871e-07
4.1284e-06
8.78449e-07
3.82247e-06
8.28401e-07
2.31328e-06
5.42159e-07
-1.42884e-06
-8.58982e-06
2.64392e-07
5.38238e-07
3.36152e-06
8.75547e-07
3.79109e-06
1.11241e-06
3.58561e-06
1.09321e-06
2.33248e-06
7.20946e-07
-1.05658e-06
-8.05895e-06
1.90073e-07
5.98855e-07
2.76267e-06
1.01936e-06
3.37058e-06
1.34407e-06
3.26091e-06
1.37973e-06
2.29682e-06
9.477e-07
-6.24557e-07
-7.26781e-06
1.56563e-07
6.23255e-07
2.13941e-06
1.14018e-06
2.85366e-06
1.56984e-06
2.83125e-06
1.68877e-06
2.17789e-06
1.23969e-06
-1.75471e-07
-6.21891e-06
1.90781e-07
6.27852e-07
1.51156e-06
1.23571e-06
2.2458e-06
1.78517e-06
2.28179e-06
2.01813e-06
1.94493e-06
1.61398e-06
2.28674e-07
-4.93633e-06
3.3141e-07
6.10499e-07
9.01062e-07
1.30112e-06
1.55518e-06
1.97995e-06
1.60296e-06
2.36212e-06
1.56276e-06
2.07956e-06
5.11232e-07
-3.48495e-06
6.2817e-07
5.55929e-07
3.45134e-07
1.32044e-06
7.90665e-07
2.10991e-06
8.13491e-07
2.7071e-06
9.65575e-07
2.64404e-06
5.74297e-07
-1.90388e-06
1.06297e-06
3.45134e-07
1.1358e-06
1.94929e-06
2.91487e-06
3.48916e-06
1.58528e-06
-2.79452e-07
-3.86709e-06
2.84136e-06
1.25648e-06
-7.02278e-06
5.48685e-06
3.48684e-06
-1.06415e-05
8.41116e-06
6.41619e-06
-1.4593e-05
1.16637e-05
9.98013e-06
-1.87352e-05
1.51713e-05
1.40605e-05
-2.29636e-05
1.88833e-05
1.8498e-05
-2.71797e-05
2.27422e-05
2.31242e-05
-3.12996e-05
2.66734e-05
2.77624e-05
-3.52429e-05
3.06047e-05
3.22172e-05
-3.89127e-05
3.44579e-05
3.63031e-05
-4.22142e-05
3.81284e-05
3.98744e-05
-4.50771e-05
4.15058e-05
4.28212e-05
-4.74403e-05
4.44935e-05
4.51678e-05
-4.93389e-05
4.69922e-05
4.70242e-05
-5.08559e-05
4.89995e-05
4.8454e-05
-5.20112e-05
5.05813e-05
4.95439e-05
-5.28513e-05
5.17615e-05
5.03822e-05
-5.3416e-05
5.25776e-05
5.10453e-05
-5.37394e-05
5.30763e-05
5.15984e-05
-5.38597e-05
5.33067e-05
5.20836e-05
-5.3795e-05
5.33098e-05
5.2526e-05
-5.35344e-05
5.30919e-05
5.29351e-05
-5.30083e-05
5.25992e-05
-5.20206e-05
5.16174e-05
-1.80297e-07
-5.05024e-06
1.63126e-06
-8.83434e-06
4.20856e-06
-1.32188e-05
7.50581e-06
-1.78903e-05
1.13934e-05
-2.26228e-05
1.56857e-05
-2.72559e-05
2.01801e-05
-3.16741e-05
2.46705e-05
-3.579e-05
2.8945e-05
-3.95174e-05
3.28173e-05
-4.2785e-05
3.61619e-05
-4.55589e-05
3.89064e-05
-4.78215e-05
4.11026e-05
-4.96366e-05
4.28554e-05
-5.10917e-05
4.42171e-05
-5.22176e-05
4.5274e-05
-5.30681e-05
4.61039e-05
-5.36811e-05
4.67719e-05
-5.4084e-05
4.73362e-05
-5.43038e-05
4.78404e-05
-5.43639e-05
4.83095e-05
-5.42641e-05
4.87561e-05
-5.3981e-05
4.91855e-05
-5.34377e-05
-5.24632e-05
-3.07777e-09
-6.35404e-06
2.08176e-06
-1.09192e-05
5.00037e-06
-1.61374e-05
8.61815e-06
-2.15081e-05
1.27232e-05
-2.67279e-05
1.70669e-05
-3.15996e-05
2.14035e-05
-3.60107e-05
2.55012e-05
-3.98877e-05
2.91754e-05
-4.31915e-05
3.23195e-05
-4.59291e-05
3.4895e-05
-4.81345e-05
3.69649e-05
-4.98913e-05
3.86225e-05
-5.12942e-05
3.99206e-05
-5.23897e-05
4.09414e-05
-5.32384e-05
4.17543e-05
-5.3881e-05
4.24172e-05
-5.4344e-05
4.29806e-05
-5.46474e-05
4.34863e-05
-5.48094e-05
4.39604e-05
-5.48381e-05
4.44168e-05
-5.47204e-05
4.48612e-05
-5.44254e-05
4.53004e-05
-5.3877e-05
-5.293e-05
2.61437e-07
-7.77075e-06
2.62189e-06
-1.32796e-05
5.84383e-06
-1.93594e-05
9.69015e-06
-2.53544e-05
1.38584e-05
-3.08961e-05
1.8044e-05
-3.57852e-05
2.1984e-05
-3.99507e-05
2.54891e-05
-4.33929e-05
2.84658e-05
-4.61682e-05
3.09033e-05
-4.83666e-05
3.28652e-05
-5.00963e-05
3.44355e-05
-5.14616e-05
3.56721e-05
-5.25309e-05
3.66524e-05
-5.337e-05
3.74386e-05
-5.40246e-05
3.8083e-05
-5.45254e-05
3.86305e-05
-5.48916e-05
3.91191e-05
-5.5136e-05
3.95767e-05
-5.5267e-05
4.00186e-05
-5.52799e-05
4.04523e-05
-5.51542e-05
4.08813e-05
-5.48544e-05
4.13155e-05
-5.43111e-05
-5.34024e-05
6.18832e-07
-9.32942e-06
3.22852e-06
-1.58893e-05
6.68076e-06
-2.28116e-05
1.06219e-05
-2.92955e-05
1.46571e-05
-3.49313e-05
1.84663e-05
-3.95944e-05
2.18405e-05
-4.33248e-05
2.46894e-05
-4.62418e-05
2.70177e-05
-4.84966e-05
2.88876e-05
-5.02364e-05
3.03768e-05
-5.15856e-05
3.15527e-05
-5.26375e-05
3.24863e-05
-5.34644e-05
3.32347e-05
-5.41184e-05
3.38462e-05
-5.46361e-05
3.43619e-05
-5.50411e-05
3.48168e-05
-5.53464e-05
3.52382e-05
-5.55574e-05
3.56441e-05
-5.56729e-05
3.60433e-05
-5.56791e-05
3.64404e-05
-5.55513e-05
3.68391e-05
-5.52531e-05
3.72517e-05
-5.47237e-05
-5.38609e-05
1.02463e-06
-1.10422e-05
3.84705e-06
-1.87117e-05
7.43339e-06
-2.63979e-05
1.12945e-05
-3.31566e-05
1.49983e-05
-3.86352e-05
1.82827e-05
-4.28788e-05
2.10429e-05
-4.6085e-05
2.32869e-05
-4.84858e-05
2.50785e-05
-5.02882e-05
2.64963e-05
-5.16542e-05
2.76134e-05
-5.27026e-05
2.84949e-05
-5.35191e-05
2.91957e-05
-5.41652e-05
2.97619e-05
-5.46846e-05
3.02324e-05
-5.51067e-05
3.06397e-05
-5.54484e-05
3.10097e-05
-5.57164e-05
3.13613e-05
-5.5909e-05
3.1706e-05
-5.60176e-05
3.20493e-05
-5.60225e-05
3.23952e-05
-5.58972e-05
3.27486e-05
-5.56065e-05
3.31227e-05
-5.50978e-05
-5.42868e-05
1.43978e-06
-1.29055e-05
4.41542e-06
-2.16874e-05
8.00536e-06
-2.99879e-05
1.16099e-05
-3.67611e-05
1.48446e-05
-4.187e-05
1.75575e-05
-4.55917e-05
1.97468e-05
-4.82742e-05
2.14787e-05
-5.02177e-05
2.28352e-05
-5.16447e-05
2.38923e-05
-5.27113e-05
2.47154e-05
-5.35257e-05
2.53593e-05
-5.4163e-05
2.58698e-05
-5.46756e-05
2.62843e-05
-5.50992e-05
2.66334e-05
-5.54557e-05
2.69409e-05
-5.57559e-05
2.72254e-05
-5.60008e-05
2.74996e-05
-5.61832e-05
2.77713e-05
-5.62893e-05
2.80452e-05
-5.62965e-05
2.83259e-05
-5.61778e-05
2.86194e-05
-5.59e-05
2.89396e-05
-5.54179e-05
-5.46634e-05
1.82444e-06
-1.48976e-05
4.87688e-06
-2.47398e-05
8.32134e-06
-3.34323e-05
1.15349e-05
-3.99747e-05
1.42449e-05
-4.45799e-05
1.64149e-05
-4.77617e-05
1.81093e-05
-4.99687e-05
1.94154e-05
-5.15238e-05
2.04142e-05
-5.26435e-05
2.11745e-05
-5.34716e-05
2.17538e-05
-5.41049e-05
2.21991e-05
-5.46083e-05
2.25481e-05
-5.50247e-05
2.28302e-05
-5.53813e-05
2.30676e-05
-5.5693e-05
2.32769e-05
-5.59652e-05
2.34706e-05
-5.61945e-05
2.36578e-05
-5.63705e-05
2.38448e-05
-5.64763e-05
2.4037e-05
-5.64887e-05
2.42399e-05
-5.63807e-05
2.44606e-05
-5.61207e-05
2.47131e-05
-5.56704e-05
-5.49764e-05
2.14103e-06
-1.69764e-05
5.18067e-06
-2.77795e-05
8.34845e-06
-3.66001e-05
1.10982e-05
-4.27244e-05
1.32927e-05
-4.67744e-05
1.49793e-05
-4.94483e-05
1.62514e-05
-5.12409e-05
1.71981e-05
-5.24705e-05
1.78945e-05
-5.33398e-05
1.84027e-05
-5.39799e-05
1.87736e-05
-5.44758e-05
1.9047e-05
-5.48817e-05
1.92529e-05
-5.52307e-05
1.94129e-05
-5.55413e-05
1.9542e-05
-5.58221e-05
1.96508e-05
-5.6074e-05
1.97475e-05
-5.62913e-05
1.9839e-05
-5.6462e-05
1.99313e-05
-5.65686e-05
2.00309e-05
-5.65883e-05
2.01446e-05
-5.64944e-05
2.02806e-05
-5.62567e-05
2.04531e-05
-5.58429e-05
-5.52135e-05
2.36258e-06
-1.90933e-05
5.29317e-06
-3.071e-05
8.09446e-06
-3.94014e-05
1.03645e-05
-4.49945e-05
1.20851e-05
-4.84949e-05
1.3349e-05
-5.07122e-05
1.42567e-05
-5.21486e-05
1.48929e-05
-5.31067e-05
1.53269e-05
-5.37739e-05
1.56152e-05
-5.42681e-05
1.58022e-05
-5.46628e-05
1.59209e-05
-5.50004e-05
1.59942e-05
-5.53039e-05
1.60366e-05
-5.55837e-05
1.60574e-05
-5.58429e-05
1.60626e-05
-5.60792e-05
1.60571e-05
-5.62858e-05
1.60462e-05
-5.6451e-05
1.60359e-05
-5.65583e-05
1.60338e-05
-5.65863e-05
1.60483e-05
-5.65089e-05
1.60889e-05
-5.62973e-05
1.61705e-05
-5.59245e-05
-5.53654e-05
2.47699e-06
-2.11876e-05
5.20689e-06
-3.34399e-05
7.59795e-06
-4.17925e-05
9.40864e-06
-4.68052e-05
1.07035e-05
-4.97898e-05
1.15951e-05
-5.16039e-05
1.21823e-05
-5.27357e-05
1.25443e-05
-5.34687e-05
1.27453e-05
-5.39749e-05
1.28364e-05
-5.43592e-05
1.28557e-05
-5.46821e-05
1.28297e-05
-5.49744e-05
1.27749e-05
-5.52491e-05
1.27005e-05
-5.55094e-05
1.26114e-05
-5.57538e-05
1.25102e-05
-5.5978e-05
1.23992e-05
-5.61748e-05
1.22819e-05
-5.63337e-05
1.21641e-05
-5.64405e-05
1.20538e-05
-5.64759e-05
1.19605e-05
-5.64157e-05
1.18955e-05
-5.62322e-05
1.18761e-05
-5.59052e-05
-5.54254e-05
2.48418e-06
-2.32029e-05
4.93967e-06
-3.58954e-05
6.9111e-06
-4.37639e-05
8.29655e-06
-4.81907e-05
9.20926e-06
-5.07025e-05
9.76849e-06
-5.21631e-05
1.00685e-05
-5.30357e-05
1.01836e-05
-5.35838e-05
1.0173e-05
-5.39643e-05
1.00823e-05
-5.42684e-05
9.94344e-06
-5.45433e-05
9.77698e-06
-5.4808e-05
9.59433e-06
-5.50664e-05
9.40103e-06
-5.53161e-05
9.19911e-06
-5.55519e-05
8.98897e-06
-5.57678e-05
8.77095e-06
-5.59567e-05
8.54669e-06
-5.61095e-05
8.32039e-06
-5.62142e-05
8.09948e-06
-5.6255e-05
7.89394e-06
-5.62101e-05
7.71429e-06
-5.60526e-05
7.58044e-06
-5.57713e-05
-5.53907e-05
2.39087e-06
-2.5091e-05
4.52639e-06
-3.80309e-05
6.08687e-06
-4.53244e-05
7.08108e-06
-4.91849e-05
7.64794e-06
-5.12693e-05
7.90609e-06
-5.24212e-05
7.94472e-06
-5.30744e-05
7.83332e-06
-5.34724e-05
7.62622e-06
-5.37572e-05
7.36324e-06
-5.40054e-05
7.07065e-06
-5.42507e-05
6.76377e-06
-5.45011e-05
6.45035e-06
-5.4753e-05
6.13361e-06
-5.49993e-05
5.81424e-06
-5.52325e-05
5.49179e-06
-5.54454e-05
5.16569e-06
-5.56306e-05
4.8363e-06
-5.57801e-05
4.5061e-06
-5.5884e-05
4.18135e-06
-5.59302e-05
3.87396e-06
-5.59027e-05
3.59667e-06
-5.57753e-05
3.3222e-06
-5.54968e-05
-5.52419e-05
2.20715e-06
-2.68089e-05
4.00339e-06
-3.98272e-05
5.1708e-06
-4.64918e-05
5.80437e-06
-4.98184e-05
6.05467e-06
-5.15196e-05
6.03624e-06
-5.24028e-05
5.83317e-06
-5.28713e-05
5.51034e-06
-5.31496e-05
5.11696e-06
-5.33638e-05
4.68706e-06
-5.35756e-05
4.24149e-06
-5.38051e-05
3.79134e-06
-5.40509e-05
3.34169e-06
-5.43034e-05
2.89445e-06
-5.45521e-05
2.44998e-06
-5.4788e-05
2.00807e-06
-5.50035e-05
1.56864e-06
-5.51912e-05
1.13252e-06
-5.5344e-05
7.02054e-07
-5.54535e-05
2.81408e-07
-5.55096e-05
-1.20265e-07
-5.5501e-05
-4.7157e-07
-5.5424e-05
-6.8158e-07
-5.52868e-05
-5.47566e-05
1.95067e-06
-2.83245e-05
3.40481e-06
-4.12813e-05
4.20043e-06
-4.72874e-05
4.49985e-06
-5.01179e-05
4.45693e-06
-5.14767e-05
4.18089e-06
-5.21268e-05
3.75108e-06
-5.24415e-05
3.22776e-06
-5.26263e-05
2.65479e-06
-5.27909e-05
2.06053e-06
-5.29813e-05
1.46077e-06
-5.32054e-05
8.63198e-07
-5.34534e-05
2.70772e-07
-5.37109e-05
-3.15616e-07
-5.39657e-05
-8.9588e-07
-5.42078e-05
-1.47015e-06
-5.44292e-05
-2.0384e-06
-5.4623e-05
-2.60023e-06
-5.47821e-05
-3.15453e-06
-5.48992e-05
-3.69813e-06
-5.4966e-05
-4.22398e-06
-5.49752e-05
-4.73174e-06
-5.49162e-05
-5.28471e-06
-5.47339e-05
-5.43891e-05
1.64555e-06
-2.96163e-05
2.76357e-06
-4.23993e-05
3.20832e-06
-4.77322e-05
3.19484e-06
-5.01044e-05
2.87656e-06
-5.11584e-05
2.3573e-06
-5.16075e-05
1.7121e-06
-5.17963e-05
9.96068e-07
-5.19102e-05
2.47826e-07
-5.20426e-05
-5.09793e-07
-5.22237e-05
-1.26499e-06
-5.24502e-05
-2.01351e-06
-5.27048e-05
-2.75403e-06
-5.29704e-05
-3.4865e-06
-5.32332e-05
-4.21128e-06
-5.3483e-05
-4.92874e-06
-5.37118e-05
-5.63911e-06
-5.39126e-05
-6.34241e-06
-5.40788e-05
-7.03805e-06
-5.42036e-05
-7.72463e-06
-5.42794e-05
-8.40125e-06
-5.42986e-05
-9.06999e-06
-5.42475e-05
-9.70894e-06
-5.40949e-05
-5.38802e-05
1.32045e-06
-3.06724e-05
2.11087e-06
-4.31898e-05
2.22208e-06
-4.78434e-05
1.91136e-06
-4.97937e-05
1.33107e-06
-5.05781e-05
5.78872e-07
-5.08553e-05
-2.74037e-07
-5.09434e-05
-1.17611e-06
-5.10082e-05
-2.09599e-06
-5.11227e-05
-3.01573e-06
-5.13039e-05
-3.92753e-06
-5.15384e-05
-4.82904e-06
-5.18033e-05
-5.72035e-06
-5.20791e-05
-6.60213e-06
-5.23514e-05
-7.47503e-06
-5.26101e-05
-8.33954e-06
-5.28472e-05
-9.19587e-06
-5.30562e-05
-1.00438e-05
-5.32309e-05
-1.08825e-05
-5.33649e-05
-1.171e-05
-5.3452e-05
-1.25231e-05
-5.34855e-05
-1.33149e-05
-5.34557e-05
-1.40634e-05
-5.33464e-05
-5.32294e-05
1.00839e-06
-3.14907e-05
1.47615e-06
-4.36575e-05
1.26521e-06
-4.76324e-05
6.67004e-07
-4.91955e-05
-1.68556e-07
-4.97426e-05
-1.14345e-06
-4.98804e-05
-2.1959e-06
-4.98909e-05
-3.28074e-06
-4.99233e-05
-4.37005e-06
-5.00334e-05
-5.45078e-06
-5.02232e-05
-6.5185e-06
-5.04707e-05
-7.57299e-06
-5.07488e-05
-8.61523e-06
-5.10369e-05
-9.64625e-06
-5.13204e-05
-1.06667e-05
-5.15896e-05
-1.1677e-05
-5.1837e-05
-1.2677e-05
-5.20563e-05
-1.36659e-05
-5.2242e-05
-1.46421e-05
-5.23886e-05
-1.56029e-05
-5.24912e-05
-1.65434e-05
-5.25449e-05
-1.74554e-05
-5.25437e-05
-1.83219e-05
-5.24799e-05
-5.24449e-05
7.47456e-07
-3.20816e-05
8.86244e-07
-4.37963e-05
3.57222e-07
-4.71034e-05
-5.24721e-07
-4.83135e-05
-1.60546e-06
-4.86618e-05
-2.80084e-06
-4.8685e-05
-4.04953e-06
-4.86423e-05
-5.31249e-06
-4.86604e-05
-6.56804e-06
-4.87779e-05
-7.80752e-06
-4.89837e-05
-9.0295e-06
-4.92487e-05
-1.02354e-05
-4.9543e-05
-1.14267e-05
-4.98455e-05
-1.26048e-05
-5.01423e-05
-1.37702e-05
-5.04242e-05
-1.49229e-05
-5.06843e-05
-1.60624e-05
-5.09168e-05
-1.71876e-05
-5.11168e-05
-1.82964e-05
-5.12798e-05
-1.93853e-05
-5.14023e-05
-2.04492e-05
-5.1481e-05
-2.14801e-05
-5.15128e-05
-2.24648e-05
-5.14952e-05
-5.15325e-05
5.80193e-07
-3.2471e-05
3.64534e-07
-4.35806e-05
-4.86513e-07
-4.62524e-05
-1.65117e-06
-4.71489e-05
-2.97896e-06
-4.7334e-05
-4.38947e-06
-4.72745e-05
-5.8295e-06
-4.72022e-05
-7.2663e-06
-4.72236e-05
-8.68433e-06
-4.73598e-05
-1.00794e-05
-4.75887e-05
-1.14527e-05
-4.78754e-05
-1.2807e-05
-4.81887e-05
-1.41443e-05
-4.85082e-05
-1.54658e-05
-4.88208e-05
-1.67719e-05
-4.91181e-05
-1.80625e-05
-4.93937e-05
-1.93367e-05
-4.96426e-05
-2.05931e-05
-4.98603e-05
-2.18294e-05
-5.00435e-05
-2.30421e-05
-5.01897e-05
-2.4226e-05
-5.02971e-05
-2.53741e-05
-5.03647e-05
-2.64756e-05
-5.03937e-05
-5.04963e-05
5.51458e-07
-3.26911e-05
-6.83044e-08
-4.29609e-05
-1.25613e-06
-4.50645e-05
-2.7103e-06
-4.56947e-05
-4.28412e-06
-4.57602e-05
-5.90656e-06
-4.56521e-05
-7.53292e-06
-4.55759e-05
-9.13843e-06
-4.56181e-05
-1.07142e-05
-4.5784e-05
-1.22606e-05
-4.60423e-05
-1.37812e-05
-4.63548e-05
-1.52797e-05
-4.66902e-05
-1.67585e-05
-4.70294e-05
-1.82187e-05
-4.73606e-05
-1.96608e-05
-4.76761e-05
-2.10841e-05
-4.79703e-05
-2.2488e-05
-4.82387e-05
-2.38707e-05
-4.84776e-05
-2.523e-05
-4.86843e-05
-2.65622e-05
-4.88574e-05
-2.78628e-05
-4.89965e-05
-2.91255e-05
-4.9102e-05
-3.03412e-05
-4.9178e-05
-4.93408e-05
6.91697e-07
-3.27546e-05
-3.8898e-07
-4.18802e-05
-1.94632e-06
-4.35072e-05
-3.70146e-06
-4.39396e-05
-5.52252e-06
-4.39391e-05
-7.35256e-06
-4.38221e-05
-9.15876e-06
-4.37697e-05
-1.09264e-05
-4.38504e-05
-1.2654e-05
-4.40564e-05
-1.43462e-05
-4.43501e-05
-1.60088e-05
-4.46922e-05
-1.76462e-05
-4.50528e-05
-1.92611e-05
-4.54145e-05
-2.08546e-05
-4.57671e-05
-2.24269e-05
-4.61038e-05
-2.39776e-05
-4.64197e-05
-2.55057e-05
-4.67106e-05
-2.70096e-05
-4.69737e-05
-2.8487e-05
-4.72068e-05
-2.99347e-05
-4.74097e-05
-3.13482e-05
-4.7583e-05
-3.2722e-05
-4.77282e-05
-3.40483e-05
-4.78516e-05
-4.80705e-05
1.1115e-06
-3.28031e-05
-5.82789e-07
-4.01859e-05
-2.5694e-06
-4.15206e-05
-4.637e-06
-4.18719e-05
-6.70218e-06
-4.1874e-05
-8.73131e-06
-4.17929e-05
-1.07078e-05
-4.17932e-05
-1.2629e-05
-4.19292e-05
-1.45008e-05
-4.21846e-05
-1.63319e-05
-4.2519e-05
-1.813e-05
-4.28941e-05
-1.99e-05
-4.32828e-05
-2.16447e-05
-4.36698e-05
-2.33652e-05
-4.40466e-05
-2.50617e-05
-4.44073e-05
-2.67336e-05
-4.47477e-05
-2.83802e-05
-4.50641e-05
-2.99998e-05
-4.5354e-05
-3.15904e-05
-4.56163e-05
-3.31487e-05
-4.58514e-05
-3.46707e-05
-4.6061e-05
-3.61513e-05
-4.62477e-05
-3.75839e-05
-4.64189e-05
-4.66903e-05
2.21747e-06
-3.34353e-05
-6.91154e-07
-3.72773e-05
-3.17616e-06
-3.90356e-05
-5.54606e-06
-3.9502e-05
-7.83779e-06
-3.95822e-05
-1.00493e-05
-3.95815e-05
-1.2182e-05
-3.96604e-05
-1.42453e-05
-3.98659e-05
-1.6252e-05
-4.01779e-05
-1.82138e-05
-4.05572e-05
-2.01397e-05
-4.09683e-05
-2.2035e-05
-4.13875e-05
-2.39024e-05
-4.18024e-05
-2.57429e-05
-4.2206e-05
-2.75568e-05
-4.25935e-05
-2.93436e-05
-4.29609e-05
-3.11024e-05
-4.33052e-05
-3.2832e-05
-4.36245e-05
-3.45301e-05
-4.39182e-05
-3.61937e-05
-4.41878e-05
-3.7819e-05
-4.44358e-05
-3.94013e-05
-4.46654e-05
-4.09354e-05
-4.48849e-05
-4.52053e-05
-1.99991e-07
1.99991e-07
-2.88194e-07
8.8203e-08
-1.76172e-07
-1.12022e-07
2.90626e-07
-4.66798e-07
2.5463e-06
-2.25568e-06
-5.0004e-06
7.5467e-06
-1.71165e-07
3.71155e-07
-1.69783e-07
8.68214e-08
4.70213e-08
-3.28826e-07
6.89559e-07
-1.10934e-06
1.98623e-06
-3.55234e-06
-7.45449e-06
4.44032e-06
-1.2462e-07
4.95775e-07
-7.45934e-08
3.67946e-08
1.63068e-07
-5.66487e-07
7.56394e-07
-1.70266e-06
1.62783e-06
-4.42378e-06
-8.55483e-06
2.72817e-06
-7.8972e-08
5.74747e-07
-9.81369e-09
-3.23637e-08
2.12268e-07
-7.88569e-07
6.7317e-07
-2.16356e-06
1.19164e-06
-4.94225e-06
-8.87683e-06
1.51365e-06
-3.88328e-08
6.1358e-07
3.0906e-08
-1.02103e-07
2.0671e-07
-9.64373e-07
5.03682e-07
-2.46054e-06
7.01302e-07
-5.13987e-06
-8.68715e-06
5.11617e-07
-6.34663e-09
6.19927e-07
5.01996e-08
-1.58649e-07
1.62322e-07
-1.0765e-06
2.88998e-07
-2.58721e-06
2.07114e-07
-5.05799e-06
-8.14272e-06
-3.37318e-07
1.40956e-08
6.05831e-07
5.29974e-08
-1.97551e-07
9.36753e-08
-1.11717e-06
5.808e-08
-2.55162e-06
-2.62517e-07
-4.73739e-06
-7.34495e-06
-1.06029e-06
2.67732e-08
5.79058e-07
4.41544e-08
-2.14932e-07
1.37707e-08
-1.08679e-06
-1.66896e-07
-2.37095e-06
-6.84083e-07
-4.2202e-06
-6.34982e-06
-1.67921e-06
3.27609e-08
5.46297e-07
2.84893e-08
-2.1066e-07
-6.75025e-08
-9.90797e-07
-3.70181e-07
-2.06827e-06
-1.04343e-06
-3.54696e-06
-5.20759e-06
-2.18565e-06
3.40147e-08
5.12282e-07
1.05421e-08
-1.87188e-07
-1.40146e-07
-8.40109e-07
-5.39578e-07
-1.66884e-06
-1.33116e-06
-2.75538e-06
-3.95852e-06
-2.58023e-06
3.25828e-08
4.797e-07
-5.79695e-09
-1.48808e-07
-1.97424e-07
-6.48482e-07
-6.66301e-07
-1.19996e-06
-1.54071e-06
-1.88097e-06
-2.63587e-06
-2.86337e-06
3.02069e-08
4.49493e-07
-1.7321e-08
-1.0128e-07
-2.34335e-07
-4.31468e-07
-7.44416e-07
-6.89882e-07
-1.66779e-06
-9.57595e-07
-1.26867e-06
-3.03498e-06
2.81869e-08
4.21306e-07
-2.22229e-08
-5.08702e-08
-2.47856e-07
-2.05835e-07
-7.70452e-07
-1.67286e-07
-1.70974e-06
-1.83104e-08
1.16116e-07
-3.09453e-06
2.73383e-08
3.93968e-07
-1.95332e-08
-3.9987e-09
-2.3695e-07
1.15818e-08
-7.43235e-07
3.38999e-07
-1.66535e-06
9.03807e-07
1.49167e-06
-3.04091e-06
2.79902e-08
3.65977e-07
-9.46409e-09
3.34556e-08
-2.02565e-07
2.04683e-07
-6.63832e-07
8.00266e-07
-1.53478e-06
1.77475e-06
2.8293e-06
-2.8724e-06
3.00398e-08
3.35938e-07
6.70153e-09
5.67939e-08
-1.47662e-07
3.59046e-07
-5.35725e-07
1.18833e-06
-1.31972e-06
2.55875e-06
4.09603e-06
-2.58646e-06
3.30616e-08
3.02876e-07
2.67373e-08
6.31182e-08
-7.72413e-08
4.63024e-07
-3.65162e-07
1.47625e-06
-1.02399e-06
3.21757e-06
5.25142e-06
-2.17937e-06
3.64548e-08
2.66421e-07
4.76419e-08
5.1931e-08
3.61388e-09
5.07052e-07
-1.61713e-07
1.64158e-06
-6.54505e-07
3.71037e-06
6.2429e-06
-1.64598e-06
3.96414e-08
2.2678e-07
6.57457e-08
2.58267e-08
8.04989e-08
4.92299e-07
5.99064e-08
1.66217e-06
-2.20477e-07
3.99075e-06
7.00372e-06
-9.81297e-07
4.22569e-08
1.84523e-07
7.74587e-08
-9.37505e-09
1.47726e-07
4.22032e-07
2.84447e-07
1.52545e-06
2.6013e-07
4.01507e-06
7.47714e-06
-2.13299e-07
4.43347e-08
1.40188e-07
7.92243e-08
-4.42646e-08
1.91237e-07
3.10019e-07
4.82855e-07
1.23383e-06
7.51817e-07
3.7461e-06
7.4557e-06
7.73265e-07
4.62122e-08
9.39761e-08
6.78209e-08
-6.58734e-08
1.97496e-07
1.80344e-07
6.18542e-07
8.12785e-07
1.22556e-06
3.13908e-06
6.65327e-06
2.02799e-06
4.79604e-08
4.60157e-08
3.9109e-08
-5.7022e-08
1.5382e-07
6.56336e-08
6.3012e-07
3.36485e-07
1.68866e-06
2.08055e-06
4.50855e-06
3.83337e-06
4.60157e-08
-1.10063e-08
5.46273e-08
3.91112e-07
2.47166e-06
6.98021e-06
2.43311e-06
-2.83217e-05
-9.84461e-07
-3.38597e-05
-3.8457e-06
-3.61744e-05
-6.46469e-06
-3.68831e-05
-8.94521e-06
-3.71017e-05
-1.13124e-05
-3.72142e-05
-1.35827e-05
-3.73901e-05
-1.57743e-05
-3.76743e-05
-1.79048e-05
-3.80474e-05
-1.99879e-05
-3.84742e-05
-2.20329e-05
-3.89232e-05
-2.40453e-05
-3.93751e-05
-2.60275e-05
-3.98202e-05
-2.79806e-05
-4.0253e-05
-2.99047e-05
-4.06694e-05
-3.17994e-05
-4.10662e-05
-3.36639e-05
-4.14407e-05
-3.54969e-05
-4.17915e-05
-3.72963e-05
-4.21188e-05
-3.90592e-05
-4.24249e-05
-4.07819e-05
-4.27131e-05
-4.24603e-05
-4.29869e-05
-4.40905e-05
-4.32547e-05
-4.36208e-05
1.36284e-06
-2.52442e-05
-1.70271e-06
-3.07942e-05
-4.64697e-06
-3.32301e-05
-7.41297e-06
-3.41171e-05
-1.00308e-05
-3.44839e-05
-1.25221e-05
-3.47229e-05
-1.49088e-05
-3.50035e-05
-1.72135e-05
-3.53696e-05
-1.94558e-05
-3.58051e-05
-2.16498e-05
-3.62802e-05
-2.38047e-05
-3.67683e-05
-2.59253e-05
-3.72545e-05
-2.80139e-05
-3.77316e-05
-3.00713e-05
-3.81955e-05
-3.20979e-05
-3.86429e-05
-3.40931e-05
-3.9071e-05
-3.60561e-05
-3.94777e-05
-3.79857e-05
-3.98619e-05
-3.98796e-05
-4.02248e-05
-4.17351e-05
-4.05694e-05
-4.35487e-05
-4.08995e-05
-4.53171e-05
-4.12184e-05
-4.70377e-05
-4.1534e-05
-4.19427e-05
3.78809e-07
-2.28949e-05
-2.56466e-06
-2.78507e-05
-5.53082e-06
-3.02639e-05
-8.37621e-06
-3.12717e-05
-1.10867e-05
-3.17733e-05
-1.3673e-05
-3.21366e-05
-1.6156e-05
-3.25206e-05
-1.85588e-05
-3.29668e-05
-2.09006e-05
-3.34632e-05
-2.31948e-05
-3.3986e-05
-2.54495e-05
-3.45136e-05
-2.76689e-05
-3.50351e-05
-2.98549e-05
-3.55456e-05
-3.20083e-05
-3.6042e-05
-3.41292e-05
-3.6522e-05
-3.62171e-05
-3.69831e-05
-3.82711e-05
-3.74236e-05
-4.02898e-05
-3.78432e-05
-4.22709e-05
-3.82437e-05
-4.42117e-05
-3.86287e-05
-4.61092e-05
-3.9002e-05
-4.7961e-05
-3.93666e-05
-4.97659e-05
-3.97292e-05
-4.01771e-05
-6.77714e-07
-2.07035e-05
-3.48895e-06
-2.50395e-05
-6.44173e-06
-2.73111e-05
-9.32626e-06
-2.83871e-05
-1.20976e-05
-2.9002e-05
-1.47556e-05
-2.94786e-05
-1.73176e-05
-2.99586e-05
-1.98047e-05
-3.04797e-05
-2.22341e-05
-3.10338e-05
-2.46175e-05
-3.16026e-05
-2.69618e-05
-3.21694e-05
-2.92702e-05
-3.27267e-05
-3.15444e-05
-3.32714e-05
-3.37849e-05
-3.38016e-05
-3.59915e-05
-3.43154e-05
-3.81638e-05
-3.48108e-05
-4.03008e-05
-3.52867e-05
-4.24007e-05
-3.57433e-05
-4.44613e-05
-3.6183e-05
-4.648e-05
-3.661e-05
-4.84541e-05
-3.70278e-05
-5.03821e-05
-3.74386e-05
-5.22635e-05
-3.78477e-05
-3.83292e-05
-1.65116e-06
-1.85407e-05
-4.39862e-06
-2.2292e-05
-7.33183e-06
-2.43779e-05
-1.02347e-05
-2.54843e-05
-1.30464e-05
-2.61903e-05
-1.57592e-05
-2.67658e-05
-1.8386e-05
-2.73317e-05
-2.09449e-05
-2.79209e-05
-2.34504e-05
-2.85283e-05
-2.59123e-05
-2.91407e-05
-2.83357e-05
-2.97459e-05
-3.07233e-05
-3.03391e-05
-3.30761e-05
-3.09186e-05
-3.53944e-05
-3.14833e-05
-3.76779e-05
-3.20319e-05
-3.9926e-05
-3.25628e-05
-4.21374e-05
-3.30753e-05
-4.43103e-05
-3.35704e-05
-4.64424e-05
-3.40509e-05
-4.85314e-05
-3.45211e-05
-5.05751e-05
-3.49841e-05
-5.25721e-05
-3.54417e-05
-5.45219e-05
-3.58979e-05
-3.64059e-05
-2.52362e-06
-1.63544e-05
-5.2495e-06
-1.95661e-05
-8.16735e-06
-2.14601e-05
-1.10787e-05
-2.25729e-05
-1.39181e-05
-2.33508e-05
-1.66732e-05
-2.40107e-05
-1.93533e-05
-2.46517e-05
-2.19728e-05
-2.53013e-05
-2.45437e-05
-2.59574e-05
-2.70734e-05
-2.6611e-05
-2.95657e-05
-2.72535e-05
-3.20225e-05
-2.78823e-05
-3.44441e-05
-2.84969e-05
-3.68308e-05
-2.90967e-05
-3.91818e-05
-2.96808e-05
-4.14965e-05
-3.02481e-05
-4.37733e-05
-3.07985e-05
-4.60104e-05
-3.13332e-05
-4.82057e-05
-3.18556e-05
-5.03573e-05
-3.23695e-05
-5.24636e-05
-3.28778e-05
-5.45236e-05
-3.33816e-05
-5.65365e-05
-3.3885e-05
-3.44183e-05
-3.29645e-06
-1.41183e-05
-6.01796e-06
-1.68446e-05
-8.92545e-06
-1.85526e-05
-1.18411e-05
-1.96573e-05
-1.47003e-05
-2.04916e-05
-1.74885e-05
-2.12225e-05
-2.02121e-05
-2.19281e-05
-2.28823e-05
-2.26312e-05
-2.55081e-05
-2.33316e-05
-2.80954e-05
-2.40238e-05
-3.06465e-05
-2.47024e-05
-3.31624e-05
-2.53665e-05
-3.56431e-05
-2.60162e-05
-3.80883e-05
-2.66515e-05
-4.04974e-05
-2.72717e-05
-4.28692e-05
-2.78763e-05
-4.52021e-05
-2.84656e-05
-4.74944e-05
-2.9041e-05
-4.97441e-05
-2.96058e-05
-5.19501e-05
-3.01636e-05
-5.41116e-05
-3.07164e-05
-5.62282e-05
-3.12649e-05
-5.82998e-05
-3.18135e-05
-3.23762e-05
-3.96349e-06
-1.1834e-05
-6.68919e-06
-1.41189e-05
-9.59082e-06
-1.5651e-05
-1.25091e-05
-1.6739e-05
-1.53831e-05
-1.76177e-05
-1.81973e-05
-1.84083e-05
-2.0956e-05
-1.91694e-05
-2.36675e-05
-1.99196e-05
-2.63386e-05
-2.06604e-05
-2.89735e-05
-2.13889e-05
-3.15733e-05
-2.21026e-05
-3.41383e-05
-2.28015e-05
-3.66682e-05
-2.34863e-05
-3.91624e-05
-2.41573e-05
-4.16199e-05
-2.48142e-05
-4.40394e-05
-2.54568e-05
-4.64192e-05
-2.60858e-05
-4.87576e-05
-2.67026e-05
-5.10532e-05
-2.73103e-05
-5.33053e-05
-2.79114e-05
-5.55141e-05
-2.85076e-05
-5.76798e-05
-2.90992e-05
-5.98032e-05
-2.96901e-05
-3.02879e-05
-4.51842e-06
-9.5012e-06
-7.25366e-06
-1.13837e-05
-1.01532e-05
-1.27514e-05
-1.3074e-05
-1.38182e-05
-1.5959e-05
-1.47327e-05
-1.87932e-05
-1.5574e-05
-2.15794e-05
-1.63833e-05
-2.43236e-05
-1.71754e-05
-2.70307e-05
-1.79534e-05
-2.97034e-05
-1.87162e-05
-3.2342e-05
-1.94639e-05
-3.49463e-05
-2.01972e-05
-3.75156e-05
-2.0917e-05
-4.00491e-05
-2.16238e-05
-4.25456e-05
-2.23177e-05
-4.50035e-05
-2.29989e-05
-4.74211e-05
-2.36681e-05
-4.97969e-05
-2.43269e-05
-5.21299e-05
-2.49773e-05
-5.442e-05
-2.56213e-05
-5.66677e-05
-2.62599e-05
-5.88735e-05
-2.68934e-05
-6.10388e-05
-2.75248e-05
-2.816e-05
-4.95755e-06
-7.12389e-06
-7.70542e-06
-8.63583e-06
-1.06061e-05
-9.85067e-06
-1.35294e-05
-1.0895e-05
-1.64227e-05
-1.18394e-05
-1.92717e-05
-1.27249e-05
-2.20781e-05
-1.35769e-05
-2.48466e-05
-1.44069e-05
-2.75806e-05
-1.52194e-05
-3.02816e-05
-1.60152e-05
-3.29493e-05
-1.67962e-05
-3.55831e-05
-1.75635e-05
-3.8182e-05
-1.83181e-05
-4.07451e-05
-1.90606e-05
-4.32711e-05
-1.97917e-05
-4.57582e-05
-2.05118e-05
-4.82047e-05
-2.12216e-05
-5.06093e-05
-2.19223e-05
-5.29713e-05
-2.26153e-05
-5.52909e-05
-2.33017e-05
-5.75688e-05
-2.3982e-05
-5.98057e-05
-2.46565e-05
-6.20025e-05
-2.5328e-05
-2.60004e-05
-5.27905e-06
-4.70821e-06
-8.0411e-06
-5.87377e-06
-1.09456e-05
-6.94617e-06
-1.38717e-05
-7.96882e-06
-1.67708e-05
-8.94043e-06
-1.96295e-05
-9.86617e-06
-2.24493e-05
-1.07572e-05
-2.52338e-05
-1.16223e-05
-2.79858e-05
-1.24674e-05
-3.07055e-05
-1.32955e-05
-3.33926e-05
-1.41092e-05
-3.6046e-05
-1.49101e-05
-3.86648e-05
-1.56992e-05
-4.12479e-05
-1.64775e-05
-4.37939e-05
-1.72458e-05
-4.63009e-05
-1.80048e-05
-4.87672e-05
-1.87553e-05
-5.11917e-05
-1.94978e-05
-5.35741e-05
-2.02329e-05
-5.59147e-05
-2.09611e-05
-5.8214e-05
-2.16826e-05
-6.04724e-05
-2.23981e-05
-6.26914e-05
-2.3109e-05
-2.38178e-05
-5.48211e-06
-2.26107e-06
-8.25919e-06
-3.09669e-06
-1.11698e-05
-4.03558e-06
-1.4099e-05
-5.03956e-06
-1.70013e-05
-6.03813e-06
-1.98649e-05
-7.0026e-06
-2.26911e-05
-7.93092e-06
-2.54836e-05
-8.82987e-06
-2.82443e-05
-9.7067e-06
-3.09734e-05
-1.05664e-05
-3.367e-05
-1.14126e-05
-3.63332e-05
-1.22468e-05
-3.89622e-05
-1.30703e-05
-4.15556e-05
-1.38841e-05
-4.41119e-05
-1.46894e-05
-4.66294e-05
-1.54873e-05
-4.91065e-05
-1.62782e-05
-5.15419e-05
-1.70624e-05
-5.39356e-05
-1.78392e-05
-5.6288e-05
-1.86087e-05
-5.85997e-05
-1.93709e-05
-6.08714e-05
-2.01264e-05
-6.3104e-05
-2.08764e-05
-2.16219e-05
-5.5665e-06
2.10896e-07
-8.35943e-06
-3.03761e-07
-1.12784e-05
-1.11663e-06
-1.4211e-05
-2.10692e-06
-1.71141e-05
-3.13502e-06
-1.99775e-05
-4.13924e-06
-2.28033e-05
-5.10514e-06
-2.55953e-05
-6.03786e-06
-2.83557e-05
-6.9463e-06
-3.10844e-05
-7.83762e-06
-3.37808e-05
-8.71615e-06
-3.64441e-05
-9.58359e-06
-3.90733e-05
-1.04411e-05
-4.16672e-05
-1.12902e-05
-4.42244e-05
-1.21323e-05
-4.6743e-05
-1.29687e-05
-4.92215e-05
-1.37998e-05
-5.16589e-05
-1.4625e-05
-5.4055e-05
-1.54431e-05
-5.64105e-05
-1.62533e-05
-5.87257e-05
-1.70557e-05
-6.10012e-05
-1.7851e-05
-6.32378e-05
-1.86397e-05
-1.94216e-05
-5.53219e-06
2.70217e-06