/*--------------------------------*- C++ -*----------------------------------*\
  =========                 |
  \\      /  F ield         | OpenFOAM: The Open Source CFD Toolbox
   \\    /   O peration     | Website:  https://openfoam.org
    \\  /    A nd           | Version:  11
     \\/     M anipulation  |
\*---------------------------------------------------------------------------*/
FoamFile
{
    format      ascii;
    class       volVectorField;
    location    "1.62";
    object      U;
}
// * * * * * * * * * * * * * * * * * * * * * * * * * * * * * * * * * * * * * //

dimensions      [0 1 -1 0 0 0 0];

internalField   nonuniform List<vector> 
2880
(
(-0.0484125 0.00832254 5.33511e-19)
(-0.12672 -0.02729 2.623e-20)
(-0.207721 -0.0838457 6.31581e-19)
(-0.233384 -0.103044 -2.95194e-19)
(-0.226067 -0.0940466 -3.49926e-19)
(-0.161763 -0.0405621 -1.27195e-19)
(-0.0893651 -0.00287704 -4.8472e-19)
(-0.175911 -0.0473471 -4.93436e-20)
(-0.231683 -0.0877569 -2.76182e-19)
(-0.239294 -0.0999857 -2.249e-19)
(-0.213178 -0.0959764 3.43248e-19)
(-0.14296 -0.0651667 1.22534e-19)
(-0.111682 -0.00639872 0)
(-0.195943 -0.0465434 -3.67818e-19)
(-0.236785 -0.0816825 0)
(-0.231824 -0.0962245 -1.87539e-21)
(-0.190415 -0.0966201 -1.64559e-19)
(-0.114233 -0.0824933 -1.33796e-19)
(-0.129889 -0.0106923 -6.57643e-21)
(-0.210844 -0.0437239 3.44597e-19)
(-0.239636 -0.0744184 0)
(-0.222682 -0.0907566 2.03884e-19)
(-0.168499 -0.0957487 0)
(-0.0834466 -0.0908068 1.28541e-19)
(-0.150484 -0.0134495 -4.88728e-19)
(-0.223372 -0.0419163 3.27469e-19)
(-0.24125 -0.0673775 0)
(-0.213541 -0.0846566 2.0186e-19)
(-0.147592 -0.0930825 3.93356e-20)
(-0.0504223 -0.0931111 1.00179e-19)
(-0.173342 -0.0126495 5.13456e-19)
(-0.232699 -0.0395906 -6.30122e-19)
(-0.241703 -0.0606536 2.44921e-19)
(-0.204517 -0.0779745 -2.20895e-19)
(-0.127203 -0.088384 -1.87367e-20)
(-0.0157003 -0.0903628 -2.67685e-19)
(-0.190442 -0.0111995 -8.22851e-21)
(-0.239161 -0.0360406 2.88584e-19)
(-0.241288 -0.053996 -2.09435e-19)
(-0.195781 -0.070561 -2.12845e-19)
(-0.107216 -0.0816315 2.01449e-20)
(0.0203172 -0.0835151 1.51914e-19)
(-0.203571 -0.00987249 0)
(-0.243733 -0.0318208 0)
(-0.24028 -0.0467527 -1.20629e-19)
(-0.18761 -0.0622836 2.99415e-19)
(-0.0878782 -0.072942 0)
(0.0569068 -0.0733854 1.06144e-19)
(-0.214859 -0.00810213 -2.49628e-19)
(-0.246964 -0.026981 1.42292e-19)
(-0.239064 -0.0388365 2.54957e-19)
(-0.18035 -0.0530666 -1.09194e-20)
(-0.0696907 -0.0624907 -8.77068e-20)
(0.0930732 -0.0606363 -1.47289e-19)
(-0.224241 -0.00623293 6.44455e-21)
(-0.249105 -0.0214523 -1.55295e-19)
(-0.23795 -0.0301577 -1.19991e-19)
(-0.174379 -0.0428884 -1.0234e-19)
(-0.053317 -0.0504606 -1.67882e-21)
(0.12762 -0.0457479 7.50144e-20)
(-0.231222 -0.00445764 2.68022e-19)
(-0.250345 -0.0151691 0)
(-0.237208 -0.0206486 0)
(-0.170094 -0.031771 5.29987e-20)
(-0.0395045 -0.0370112 4.43857e-20)
(0.159258 -0.0291571 0)
(-0.235538 -0.00274289 0)
(-0.250851 -0.00809088 0)
(-0.237073 -0.0102783 0)
(-0.167888 -0.0197801 -7.34267e-20)
(-0.0290908 -0.0223268 5.21457e-20)
(0.186849 -0.0113724 0)
(-0.237038 -0.000920344 3.41409e-20)
(-0.250782 -0.000210476 0)
(-0.237737 0.000931057 6.1606e-23)
(-0.168114 -0.00700708 1.35536e-20)
(-0.0230434 -0.00665779 0)
(0.209381 0.00696244 0)
(-0.235729 0.00133327 -3.30875e-20)
(-0.25013 0.0084484 0)
(-0.239292 0.0128739 0)
(-0.171108 0.00645846 0)
(-0.022073 0.00965197 0)
(0.225433 0.02503 0)
(-0.231687 0.00438587 0)
(-0.24887 0.0178042 0)
(-0.241791 0.0254341 0)
(-0.176997 0.0203634 0)
(-0.026696 0.026424 9.96221e-20)
(0.233701 0.0421107 0)
(-0.225504 0.00897653 2.74156e-19)
(-0.247051 0.0276182 1.04052e-20)
(-0.245171 0.0384897 -1.40295e-19)
(-0.185774 0.0344421 0)
(-0.0377107 0.0434836 -2.01936e-19)
(0.233249 0.0574093 -8.96489e-20)
(-0.219768 0.0168789 3.17526e-22)
(-0.244788 0.0375416 1.06472e-20)
(-0.249297 0.0517579 -2.60635e-20)
(-0.197192 0.0484194 1.46296e-20)
(-0.0556663 0.0606458 7.68117e-20)
(0.22326 0.0700616 1.33105e-19)
(-0.206416 0.0375238 -2.31443e-19)
(-0.241706 0.0461512 3.27092e-19)
(-0.253782 0.0648993 1.37398e-19)
(-0.210688 0.0620524 -2.44008e-19)
(-0.0807422 0.0777244 0)
(0.203082 0.0792473 0)
(-0.190858 0.0415023 4.67004e-19)
(-0.236337 0.0511536 -3.41893e-19)
(-0.257676 0.0775161 -2.83665e-19)
(-0.225494 0.0752339 4.6801e-19)
(-0.112653 0.0945827 5.42756e-20)
(0.17219 0.0843478 -1.84222e-19)
(-0.173175 0.0381476 -4.44402e-19)
(-0.22772 0.0542869 2.25893e-20)
(-0.259971 0.0897404 5.65414e-19)
(-0.240494 0.0881283 -5.14024e-19)
(-0.15082 0.111262 2.20725e-19)
(0.130411 0.0851142 2.02374e-19)
(-0.150245 0.0364924 0)
(-0.214805 0.0565101 2.33866e-20)
(-0.259854 0.101804 -3.20807e-19)
(-0.254308 0.101093 -2.71512e-21)
(-0.194038 0.128086 -1.65222e-19)
(0.0773822 0.0816201 -1.17621e-20)
(-0.129098 0.0332263 -2.21522e-20)
(-0.197894 0.0574605 -1.25977e-20)
(-0.256455 0.11335 1.93339e-20)
(-0.265912 0.11386 2.79832e-19)
(-0.240478 0.146296 -1.77857e-19)
(0.0125591 0.0725067 -5.49456e-20)
(-0.105949 0.027229 -1.68335e-20)
(-0.175285 0.0556783 -3.90861e-19)
(-0.247606 0.122516 -3.40249e-19)
(-0.27227 0.12145 0)
(-0.291138 0.171023 -1.05394e-20)
(-0.0578187 0.0489495 -2.83085e-19)
(-0.0589148 0.00625687 -9.15542e-21)
(-0.126631 0.0350185 1.34223e-21)
(-0.215113 0.116486 7.18346e-19)
(-0.240505 0.113179 -3.98211e-19)
(-0.340311 0.226734 3.43446e-19)
(-0.0894706 0.0399242 2.97346e-19)
(-0.0648769 -0.0118547 -1.1872e-19)
(0.0366246 -0.00415834 9.87362e-20)
(0.161407 0.0120457 3.95436e-20)
(0.302436 0.0301107 3.29808e-20)
(0.454143 0.0488918 -1.07433e-19)
(0.610981 0.0658972 0)
(0.766942 0.0787831 -3.38292e-21)
(0.916634 0.0859096 -2.06443e-21)
(1.05625 0.0862053 5.06559e-20)
(1.18145 0.0793571 4.75508e-20)
(1.28787 0.0657775 0)
(1.37245 0.0466593 9.6615e-21)
(1.43378 0.0241259 0)
(1.47009 -0.00111846 -5.42598e-20)
(1.48919 -0.0257658 2.27555e-20)
(1.49309 -0.0485664 -1.50075e-20)
(1.48468 -0.068851 0)
(1.46687 -0.0853116 0)
(1.44182 -0.0973514 -3.59788e-21)
(1.4116 -0.104775 2.24705e-21)
(1.37742 -0.107632 -6.70624e-21)
(1.33972 -0.105335 -1.74697e-21)
(1.29871 -0.0949519 0)
(1.25122 -0.0707691 0)
(-0.0385817 -0.0397011 0)
(0.0836665 -0.0246037 -9.87981e-20)
(0.234052 -0.00275 -6.86847e-22)
(0.399462 0.0214005 -2.8764e-20)
(0.571426 0.0463485 2.92594e-20)
(0.741543 0.0689792 4.35084e-20)
(0.902831 0.0865115 -4.61207e-21)
(1.05045 0.0970094 -4.04528e-20)
(1.17981 0.09953 1.1446e-19)
(1.28689 0.0940015 -3.18007e-20)
(1.36954 0.0813612 0)
(1.42791 0.0637079 8.71245e-20)
(1.46221 0.0417767 -5.10675e-20)
(1.48061 0.0194957 1.53564e-20)
(1.48465 -0.00264114 0)
(1.47765 -0.0232826 1.4916e-20)
(1.46221 -0.0412141 3.73912e-21)
(1.44021 -0.0557363 -8.45335e-22)
(1.4133 -0.0664111 4.69995e-21)
(1.38284 -0.0731192 8.88346e-21)
(1.34919 -0.0757721 -1.16853e-20)
(1.31234 -0.0735727 -2.93053e-20)
(1.27212 -0.0632547 1.90098e-21)
(1.22502 -0.0403228 1.94279e-20)
(-0.00416993 -0.0617488 1.48189e-19)
(0.142715 -0.0400994 0)
(0.3199 -0.0108748 -7.56494e-20)
(0.508762 0.0213689 0)
(0.696582 0.0537932 4.96393e-20)
(0.873259 0.082163 -4.37288e-20)
(1.03193 0.10325 -4.01107e-20)
(1.16765 0.11522 0)
(1.27703 0.117554 -3.48503e-20)
(1.3592 0.111034 5.29559e-21)
(1.41609 0.0978769 4.44441e-20)
(1.44968 0.0792664 0)
(1.46779 0.0592071 1.57729e-20)
(1.47225 0.0380779 -3.36571e-20)
(1.46658 0.0175954 0)
(1.45332 -0.00113768 0)
(1.43424 -0.0173711 -3.70495e-21)
(1.41063 -0.0305705 8.35467e-22)
(1.38366 -0.0403621 -1.45268e-21)
(1.35399 -0.0466445 2.39599e-20)
(1.32141 -0.0492621 -1.80293e-20)
(1.28558 -0.0472808 6.03956e-21)
(1.24619 -0.0372313 -8.06308e-21)
(1.19973 -0.0158227 8.45772e-21)
(0.0399797 -0.0751495 -1.4709e-19)
(0.214283 -0.0473778 0)
(0.418222 -0.00966621 7.75609e-20)
(0.626757 0.0319771 3.08692e-20)
(0.823772 0.0715702 4.72646e-20)
(0.998319 0.104061 1.65866e-20)
(1.14424 0.126063 3.08588e-20)
(1.2589 0.136513 0)
(1.34299 0.136186 4.34299e-20)
(1.40008 0.127387 -2.13047e-20)
(1.43438 0.112245 -1.94773e-20)
(1.45268 0.0942415 7.11841e-21)
(1.45785 0.0743774 1.42191e-20)
(1.45346 0.0544097 -7.06087e-21)
(1.44209 0.035397 -6.71017e-21)
(1.42551 0.0181002 9.06557e-21)
(1.40492 0.003112 0)
(1.38119 -0.00914368 6.29985e-21)
(1.35501 -0.0183448 -7.33126e-21)
(1.32648 -0.0243946 -1.68141e-20)
(1.29506 -0.0271251 0)
(1.2602 -0.0255033 -1.22663e-20)
(1.22165 -0.015951 -4.90468e-20)
(1.17602 0.00373165 3.81176e-20)
(0.0922095 -0.0795695 -1.5593e-19)
(0.296551 -0.0448631 0)
(0.525476 0.00246311 -7.7946e-20)
(0.747951 0.0530886 -8.52223e-20)
(0.945316 0.0980428 3.80738e-21)
(1.10742 0.131316 -1.79778e-20)
(1.23198 0.150806 -3.09058e-20)
(1.32141 0.157222 0)
(1.38114 0.153155 -2.0682e-20)
(1.41746 0.141648 0)
(1.4366 0.125724 -5.40449e-21)
(1.44277 0.107273 -1.99493e-21)
(1.43966 0.088004 -3.14597e-21)
(1.42989 0.0690306 7.17227e-21)
(1.4153 0.0511467 3.40271e-21)
(1.39716 0.0349432 -5.90172e-21)
(1.37628 0.0208789 0)
(1.35317 0.00929117 9.25714e-21)
(1.32811 0.000456006 -4.19476e-21)
(1.30078 -0.00553582 0)
(1.27047 -0.00853236 0)
(1.23655 -0.00743863 1.21056e-20)
(1.19884 0.00139021 -1.70922e-20)
(1.15419 0.0192314 -1.41202e-20)
(0.150675 -0.0760285 1.77883e-19)
(0.386528 -0.032713 -1.1466e-19)
(0.636925 0.025281 0)
(0.865566 0.0830629 -5.74173e-20)
(1.05273 0.129641 -1.92907e-20)
(1.19407 0.15994 -2.59945e-20)
(1.29364 0.174328 1.31856e-20)
(1.35917 0.175787 0)
(1.39895 0.168074 -1.06915e-21)
(1.42005 0.15451 3.87188e-21)
(1.42774 0.1376 5.85403e-21)
(1.42598 0.119145 0)
(1.41758 0.100396 1.08611e-20)
(1.40455 0.0822194 6.30396e-21)
(1.38828 0.0652255 -2.76176e-20)
(1.36965 0.0498639 9.25305e-21)
(1.34918 0.0364839 0)
(1.32704 0.0253518 1.50653e-20)
(1.30316 0.0166992 1.21306e-21)
(1.27699 0.0106056 0)
(1.24772 0.00718703 0)
(1.2147 0.00758145 1.84818e-20)
(1.17786 0.0154981 3.71041e-20)
(1.13431 0.0314544 1.83598e-20)
(0.213673 -0.06565 -2.22762e-20)
(0.480947 -0.0113086 1.15328e-19)
(0.747339 0.0566358 -4.08653e-20)
(0.971941 0.118618 5.76296e-20)
(1.14038 0.162597 0)
(1.25717 0.187171 2.95695e-20)
(1.33291 0.19554 6.93835e-21)
(1.3786 0.192301 -3.33366e-21)
(1.40314 0.181522 -9.24608e-21)
(1.41301 0.166252 8.68296e-22)
(1.41279 0.148632 -9.18593e-21)
(1.40566 0.130143 0)
(1.39388 0.111788 1.34758e-20)
(1.37901 0.0942434 -3.77353e-20)
(1.36207 0.0779616 0)
(1.34364 0.0632616 5.79332e-21)
(1.32392 0.0503883 -1.10906e-20)
(1.30284 0.0395431 6.82367e-21)
(1.2801 0.0309142 -1.80945e-20)
(1.255 0.0245678 0)
(1.22671 0.0205752 0)
(1.1946 0.0201068 -1.83513e-20)
(1.15866 0.0269662 -2.00515e-20)
(1.11635 0.0410679 -4.04206e-20)
(0.279415 -0.0496663 6.24133e-20)
(0.576058 0.0184328 6.05587e-20)
(0.850706 0.0942102 4.10619e-20)
(1.06192 0.156147 0)
(1.20695 0.194452 1.72376e-20)
(1.29965 0.212122 -8.65616e-21)
(1.3551 0.214697 1.15081e-20)
(1.38521 0.207359 -3.81344e-21)
(1.3983 0.193974 5.20748e-22)
(1.40004 0.17723 0)
(1.39427 0.15896 5.40406e-21)
(1.38361 0.140399 0)
(1.36985 0.122354 -2.0092e-20)
(1.35415 0.105332 9.54413e-21)
(1.3372 0.0896362 0)
(1.31929 0.0754597 -2.42454e-21)
(1.30044 0.0629495 2.41951e-20)
(1.28038 0.0522462 7.36312e-20)
(1.25867 0.0434982 -5.95956e-20)
(1.23458 0.0367593 1.26449e-20)
(1.20727 0.0320573 0)
(1.17612 0.03058 0)
(1.14114 0.0362777 1.32346e-20)
(1.10022 0.0486415 1.04887e-20)
(0.346159 -0.0291094 -1.05497e-19)
(0.668393 0.0545348 -3.00805e-20)
(0.942247 0.135265 -1.20938e-20)
(1.13356 0.193201 1.11282e-20)
(1.25431 0.224261 -2.73635e-20)
(1.32576 0.235034 0)
(1.3648 0.232364 0)
(1.38286 0.221401 -4.31474e-21)
(1.3874 0.205678 0)
(1.38329 0.187574 0)
(1.37378 0.168678 1.22151e-20)
(1.36098 0.150022 0)
(1.34626 0.13223 3.89331e-20)
(1.33039 0.115646 2.71797e-21)
(1.31378 0.100431 -2.68634e-20)
(1.29654 0.0866626 -2.34388e-21)
(1.27852 0.0743983 -1.30959e-20)
(1.25939 0.0637214 2.0532e-21)
(1.23862 0.0547382 1.28375e-20)
(1.2155 0.0474889 4.21461e-20)
(1.1892 0.0419663 -1.20272e-19)
(1.15908 0.0393587 5.17276e-20)
(1.12514 0.0438102 4.06303e-20)
(1.08576 0.0546502 -5.31729e-20)
(0.412253 -0.00453989 4.47392e-20)
(0.754705 0.0948838 0)
(1.01918 0.177281 0)
(1.18743 0.2287 4.95559e-21)
(1.28566 0.252072 -4.5158e-21)
(1.33932 0.256379 0)
(1.3653 0.248934 0)
(1.37411 0.234642 4.29783e-21)
(1.37233 0.216734 1.70498e-20)
(1.36416 0.197341 -1.05289e-20)
(1.35232 0.177843 -1.214e-20)
(1.33843 0.159075 0)
(1.32344 0.141482 -8.60045e-21)
(1.30782 0.125252 0)
(1.29175 0.110422 -8.79615e-21)
(1.27519 0.0969644 6.47255e-21)
(1.25793 0.0848577 8.63897e-21)
(1.23961 0.0741268 -1.4973e-20)
(1.21971 0.0648338 0)
(1.19755 0.0569896 8.09422e-21)
(1.1723 0.050568 6.18355e-21)
(1.1433 0.0467333 0)
(1.1105 0.0498412 -3.03021e-20)
(1.07283 0.0594976 2.97858e-20)
(0.475932 0.0237391 -9.67561e-21)
(0.83234 0.137762 8.98715e-21)
(1.08074 0.218755 1.91054e-20)
(1.2256 0.262487 -6.12073e-21)
(1.30409 0.278282 -3.78854e-21)
(1.34316 0.276525 -6.6199e-22)
(1.35887 0.264603 0)
(1.36066 0.247158 6.15261e-21)
(1.35435 0.227167 -1.90422e-20)
(1.34356 0.206544 7.05096e-21)
(1.33047 0.186463 0)
(1.31627 0.167558 0)
(1.30151 0.150099 2.76874e-20)
(1.28641 0.134133 -1.79992e-20)
(1.27098 0.119589 8.71179e-21)
(1.25508 0.106358 8.6717e-21)
(1.23849 0.0943475 -8.57623e-21)
(1.22088 0.083522 0)
(1.20175 0.073895 0)
(1.1805 0.0654277 -8.10351e-21)
(1.15635 0.0580684 7.91872e-21)
(1.12857 0.0529391 0)
(1.097 0.0545165 0)
(1.06132 0.0635077 0)
(0.535539 0.0553759 -4.56612e-20)
(0.899299 0.182183 3.26682e-21)
(1.12762 0.259122 -1.833e-20)
(1.25044 0.29476 6.96477e-21)
(1.31207 0.303193 0)
(1.33934 0.295643 -2.30902e-22)
(1.34703 0.279426 4.0107e-21)
(1.34365 0.258945 -2.95942e-21)
(1.3343 0.236956 0)
(1.32204 0.215157 0)
(1.30855 0.1945 2.772e-21)
(1.29459 0.175415 1.0881e-20)
(1.28042 0.158005 -1.01972e-20)
(1.26603 0.142195 0)
(1.2513 0.127831 0)
(1.23607 0.114744 -1.04316e-20)
(1.22009 0.102786 1.74484e-20)
(1.20308 0.0918604 -9.69826e-21)
(1.18464 0.0819239 -9.75424e-21)
(1.16422 0.0728962 2.83807e-20)
(1.14112 0.0646713 -3.70626e-20)
(1.11454 0.0582107 1.80945e-20)
(1.08425 0.0577179 0)
(1.05115 0.0668956 0)
(0.589649 0.0897086 0)
(0.954454 0.227686 -9.77317e-23)
(1.16106 0.298459 8.65771e-23)
(1.26394 0.325732 -1.53551e-23)
(1.31143 0.32694 -1.89569e-24)
(1.32926 0.313762 1.45693e-23)
(1.33087 0.293371 6.86235e-23)
(1.32386 0.269954 -6.36706e-23)
(1.31269 0.246045 -3.06157e-21)
(1.29989 0.223114 8.41179e-23)
(1.28665 0.201873 -2.55721e-21)
(1.27337 0.182543 -1.80202e-22)
(1.26005 0.165076 0)
(1.24653 0.149295 3.09748e-21)
(1.2326 0.134989 0)
(1.21807 0.121948 0)
(1.20272 0.10999 2.6211e-21)
(1.18629 0.0989765 -2.7904e-21)
(1.16846 0.0888145 0)
(1.14879 0.0794139 3.23766e-22)
(1.12668 0.0706632 -3.12342e-22)
(1.10137 0.063017 -3.19387e-22)
(1.07251 0.0588772 -2.25974e-21)
(1.042 0.0698896 0)
(0.637114 0.126107 4.55515e-20)
(0.997651 0.273782 2.91275e-21)
(1.18232 0.336885 1.0893e-20)
(1.26765 0.355529 3.04011e-21)
(1.30349 0.349559 0)
(1.31396 0.330837 0)
(1.31115 0.306362 0)
(1.30182 0.280096 1.31645e-20)
(1.28986 0.254346 -1.79785e-20)
(1.27725 0.230318 1.33564e-20)
(1.26476 0.20847 7.99258e-21)
(1.25249 0.188818 0)
(1.24022 0.171171 0)
(1.2277 0.155273 -3.06864e-21)
(1.2147 0.14087 1.31843e-20)
(1.20101 0.127731 0)
(1.1864 0.115664 0)
(1.17068 0.104517 2.78093e-21)
(1.15357 0.0941858 0)
(1.13477 0.0846065 0)
(1.11393 0.0756937 -2.16312e-20)
(1.09069 0.067416 2.11089e-20)
(1.06435 0.0588566 2.64002e-21)
(1.03003 0.0728013 0)
(0.677082 0.164114 -4.57375e-20)
(1.02918 0.320134 5.22783e-21)
(1.19247 0.374411 -1.80107e-20)
(1.26273 0.384142 -3.02528e-21)
(1.28921 0.370985 0)
(1.29415 0.346755 0)
(1.28837 0.318268 0)
(1.27788 0.289245 -1.3093e-20)
(1.26597 0.261732 1.40056e-20)
(1.25415 0.236644 0)
(1.24281 0.214167 -1.43887e-20)
(1.23178 0.194114 0)
(1.22073 0.17617 2.96688e-20)
(1.20935 0.160004 -2.78697e-20)
(1.19739 0.145324 -1.30755e-20)
(1.18465 0.131881 0)
(1.17093 0.119472 0)
(1.15605 0.107935 0)
(1.13979 0.0971536 0)
(1.12192 0.0869501 0)
(1.10223 0.0768987 0)
(1.08041 0.0670048 0)
(1.05455 0.0612885 0)
(1.01892 0.0727458 -1.244e-20)
(0.7089 0.203738 0)
(1.04941 0.366618 0)
(1.19239 0.411036 1.31529e-20)
(1.25004 0.411481 0)
(1.26926 0.391063 -2.22923e-20)
(1.27033 0.361328 0)
(1.26289 0.328904 -3.50345e-20)
(1.25224 0.297231 0)
(1.24112 0.268044 0)
(1.23058 0.241944 3.72372e-20)
(1.22068 0.218833 -3.62521e-20)
(1.21109 0.198332 -3.49924e-20)
(1.20138 0.180007 1.22028e-21)
(1.19124 0.163463 2.93092e-20)
(1.18041 0.148373 3.0376e-20)
(1.16871 0.134466 -8.63528e-20)
(1.15597 0.121523 0)
(1.14201 0.109374 0)
(1.12663 0.0978693 -2.68019e-20)
(1.10966 0.0867394 5.02536e-20)
(1.09093 0.0754697 -4.88633e-20)
(1.06995 0.0645866 0)
(1.04442 0.0597028 0)
(1.0129 0.0683167 -1.35163e-20)
(0.731918 0.245405 -7.90647e-20)
(1.05861 0.413203 -7.96015e-21)
(1.18269 0.446678 -2.03779e-20)
(1.23016 0.437328 1.1517e-20)
(1.24409 0.409528 -3.39552e-20)
(1.24284 0.374291 1.45179e-20)
(1.23496 0.338021 3.48525e-20)
(1.22506 0.303836 0)
(1.21536 0.27309 0)
(1.2065 0.24605 -7.69241e-20)
(1.19831 0.222338 7.16059e-20)
(1.1903 0.201386 -1.13278e-19)
(1.18205 0.182654 3.57213e-20)
(1.17323 0.165694 3.19978e-20)
(1.16361 0.150148 9.77528e-20)
(1.15302 0.13573 -9.32958e-20)
(1.14132 0.122212 8.95802e-20)
(1.12835 0.109414 0)
(1.11394 0.0971777 -1.96173e-21)
(1.09797 0.0852088 0)
(1.08032 0.0730307 0)
(1.06044 0.0614813 2.68001e-20)
(1.036 0.056556 0)
(1.00749 0.0628271 2.56137e-20)
(0.745131 0.289964 6.29096e-21)
(1.05679 0.459797 2.9818e-20)
(1.16365 0.481126 6.96478e-21)
(1.20341 0.461309 1.32299e-20)
(1.21399 0.425986 4.46802e-20)
(1.21197 0.385292 4.6614e-20)
(1.20478 0.345307 4.74031e-20)
(1.19646 0.308787 3.51301e-21)
(1.18873 0.27665 4.20313e-21)
(1.18191 0.248786 4.42495e-20)
(1.17564 0.224546 -4.53486e-20)
(1.16937 0.203186 -4.22766e-20)
(1.16267 0.184077 3.56079e-20)
(1.15525 0.166728 -3.76353e-20)
(1.14691 0.15076 -6.90119e-20)
(1.13751 0.135878 3.19594e-20)
(1.12693 0.121847 -1.88123e-19)
(1.11503 0.10849 1.53711e-19)
(1.10169 0.0956476 5.92477e-20)
(1.08683 0.0830272 0)
(1.07041 0.0701967 2.88346e-20)
(1.05187 0.0581276 1.83014e-21)
(1.02883 0.0527512 -2.94606e-20)
(1.00287 0.0570883 0)
(0.746824 0.338767 5.04748e-20)
(1.0436 0.506047 -2.96845e-20)
(1.13526 0.513959 -6.92107e-21)
(1.16998 0.482861 5.28513e-20)
(1.17924 0.439893 5.02434e-20)
(1.17794 0.393854 -9.25558e-20)
(1.17254 0.350402 1.68118e-19)
(1.16656 0.311784 -1.6175e-19)
(1.16131 0.27847 -1.54461e-19)
(1.15684 0.249952 -1.01311e-19)
(1.15269 0.225308 -5.21484e-20)
(1.14829 0.203632 0)
(1.14324 0.184225 -4.29631e-20)
(1.13731 0.166564 1.14871e-19)
(1.13034 0.150258 3.56659e-20)
(1.12221 0.135006 3.41291e-20)
(1.11284 0.120572 3.75235e-20)
(1.10212 0.106781 -3.16114e-20)
(1.08997 0.0934761 -3.0594e-20)
(1.07635 0.0803758 0)
(1.06131 0.0670861 -1.48644e-19)
(1.04427 0.0546265 -3.27603e-20)
(1.02273 0.0486896 2.0922e-19)
(0.999032 0.0513488 0)
(0.734797 0.393957 1.16408e-19)
(1.0185 0.551185 0)
(1.09743 0.544429 1.96313e-20)
(1.12999 0.501167 -2.0686e-19)
(1.14004 0.450559 1.25246e-19)
(1.14097 0.399424 -6.29139e-20)
(1.13845 0.352839 7.19478e-21)
(1.13553 0.312482 5.3344e-20)
(1.13322 0.278291 1.06042e-19)
(1.13138 0.249345 -1.01304e-20)
(1.12952 0.224467 9.49203e-20)
(1.1271 0.20261 0)
(1.12381 0.183025 0)
(1.11945 0.165171 0)
(1.11392 0.148648 0)
(1.10716 0.133154 0)
(1.09908 0.118454 -1.45065e-19)
(1.08964 0.104372 -1.39724e-19)
(1.07877 0.0907576 1.34885e-19)
(1.0665 0.0773401 -1.30525e-19)
(1.05294 0.063763 1.26997e-19)
(1.0375 0.0510492 0)
(1.01753 0.0445567 -6.21245e-20)
(0.995963 0.045745 0)
(0.707989 0.459662 -1.53907e-19)
(0.98066 0.593943 8.92563e-21)
(1.04993 0.571369 1.06627e-19)
(1.08358 0.515148 -9.93597e-20)
(1.09666 0.457087 -6.24147e-20)
(1.1014 0.401327 0)
(1.10282 0.352138 -1.46539e-19)
(1.10363 0.31053 2.70628e-19)
(1.10465 0.275847 -2.5116e-19)
(1.10568 0.246762 -5.34674e-21)
(1.10624 0.221864 -4.67227e-21)
(1.10592 0.200003 1.04368e-19)
(1.10446 0.180398 9.79228e-20)
(1.10175 0.162501 -9.23005e-20)
(1.09775 0.145912 1.69248e-19)
(1.09242 0.130326 -7.80561e-20)
(1.08573 0.11551 1.49675e-19)
(1.07764 0.101291 -1.48629e-19)
(1.06814 0.0875205 7.39618e-20)
(1.0573 0.073945 0)
(1.04528 0.0602455 6.94215e-20)
(1.03148 0.0474226 -2.72483e-19)
(1.01313 0.0404374 3.32312e-19)
(0.993632 0.0403449 0)
(0.666871 0.543438 0)
(0.927925 0.632189 0)
(0.992154 0.592814 -1.42829e-19)
(1.03088 0.52336 1.71502e-19)
(1.04957 0.458387 0)
(1.05973 0.398814 0)
(1.06609 0.347808 2.23619e-19)
(1.07122 0.305588 -6.40855e-20)
(1.07589 0.270889 -5.69359e-21)
(1.07995 0.242008 0)
(1.08304 0.217352 1.10929e-19)
(1.08488 0.195702 -1.0372e-19)
(1.08532 0.176268 -2.98784e-19)
(1.08432 0.158507 2.8219e-19)
(1.0819 0.142021 0)
(1.07807 0.126511 -1.71314e-19)
(1.07283 0.111742 -4.78509e-21)
(1.06616 0.0975449 2.38864e-19)
(1.05809 0.0837766 -1.4826e-19)
(1.04873 0.0702028 0)
(1.03829 0.0565464 -6.95925e-20)
(1.02614 0.0437685 7.23662e-20)
(1.00946 0.0363884 -1.41631e-19)
(0.991988 0.0352022 0)
(0.604484 0.653022 -2.75612e-20)
(0.854128 0.660962 2.05108e-19)
(0.923312 0.605033 2.01935e-19)
(0.972495 0.523777 -2.10227e-19)
(0.999618 0.453183 0)
(1.01675 0.391128 -1.95037e-19)
(1.02888 0.339396 -1.72044e-19)
(1.03877 0.297366 3.24233e-19)
(1.04729 0.26321 -1.44858e-19)
(1.05447 0.23493 1.34031e-19)
(1.06014 0.210815 1.22809e-19)
(1.06418 0.189619 1.17457e-19)
(1.06655 0.170574 -2.17852e-19)
(1.06731 0.153147 0)
(1.06651 0.136953 1.90248e-19)
(1.06421 0.121696 -9.35955e-20)
(1.06045 0.107147 -8.89913e-20)
(1.05524 0.0931369 8.59383e-20)
(1.04863 0.0795323 -2.39642e-19)
(1.04078 0.0661238 2.36552e-19)
(1.03192 0.0526802 3.04186e-19)
(1.02143 0.0401104 -6.72737e-19)
(1.00645 0.0324542 3.64367e-19)
(0.990971 0.0303611 0)
(0.472059 0.770546 2.59714e-19)
(0.750325 0.669973 -2.26634e-19)
(0.845159 0.601704 -7.94461e-20)
(0.910435 0.513818 9.98076e-20)
(0.94841 0.440239 2.34132e-19)
(0.973599 0.377662 1.93875e-19)
(0.992024 0.326593 1.87952e-19)
(1.00685 0.285681 -3.37598e-19)
(1.01927 0.252683 -6.89951e-21)
(1.02957 0.225432 -4.32459e-19)
(1.03781 0.202179 1.31886e-19)
(1.04404 0.181704 -2.42611e-19)
(1.04834 0.16328 1.09967e-19)
(1.05086 0.146401 0)
(1.05169 0.130697 -1.03149e-19)
(1.05094 0.11588 0)
(1.04867 0.101726 0)
(1.04493 0.0880721 0)
(1.03979 0.0747966 -8.71376e-20)
(1.03345 0.0617217 -4.09398e-19)
(1.02616 0.0486657 3.20353e-19)
(1.01728 0.036472 -2.3856e-19)
(1.00404 0.0286715 -4.08316e-21)
(0.990509 0.0258575 5.28563e-19)
(-0.00918388 -0.0536983 -2.30171e-18)
(-0.00625676 -0.0742164 -1.10272e-19)
(-0.015553 -0.0791238 -1.39549e-18)
(-0.0584954 -0.0433891 1.47075e-18)
(-0.0441706 0.00533326 2.02835e-18)
(-0.340768 0.420424 1.56187e-18)
(-0.00852489 -0.0612466 2.20658e-18)
(-0.0134094 -0.066538 2.01628e-19)
(-0.0259658 -0.0590121 1.17382e-18)
(-0.0637967 -0.0161686 1.02564e-18)
(-0.0609724 0.0746993 -1.76722e-18)
(-0.146295 0.316613 -7.94422e-19)
(-0.0123353 -0.0622139 0)
(-0.0185194 -0.0582577 1.4312e-18)
(-0.0303011 -0.0428844 0)
(-0.0562222 0.00679782 -1.24752e-20)
(-0.0447298 0.110426 7.72385e-19)
(-0.0427091 0.294889 6.32835e-19)
(-0.0175059 -0.0616203 3.47501e-20)
(-0.0217143 -0.0516675 -1.2956e-18)
(-0.0307324 -0.0313732 0)
(-0.0448515 0.0207757 -8.27309e-19)
(-0.023719 0.121555 0)
(0.0167001 0.270652 -5.83701e-19)
(-0.0220476 -0.0603884 2.19743e-18)
(-0.0233987 -0.0467432 -1.1971e-18)
(-0.0286689 -0.0239588 0)
(-0.0318962 0.0271102 -7.52429e-19)
(-0.00154977 0.118558 -1.54586e-19)
(0.0574604 0.239568 -3.96253e-19)
(-0.0249918 -0.059211 -2.14421e-18)
(-0.0237949 -0.0435628 2.25983e-18)
(-0.0249358 -0.0203192 -8.51628e-19)
(-0.0185701 0.026925 7.99728e-19)
(0.019552 0.106146 7.0231e-20)
(0.0880932 0.202792 1.01467e-18)
(-0.026065 -0.0583849 3.35848e-20)
(-0.0230288 -0.0420372 -1.01477e-18)
(-0.020069 -0.0200308 7.11325e-19)
(-0.0055398 0.0213728 7.14164e-19)
(0.0388389 0.0872295 -7.00926e-20)
(0.112462 0.162824 -5.53461e-19)
(-0.0253809 -0.0579756 0)
(-0.0212396 -0.041923 0)
(-0.0144951 -0.0225611 3.88688e-19)
(0.00677205 0.0115669 -9.75133e-19)
(0.0560773 0.0637437 0)
(0.132394 0.121103 -3.6049e-19)
(-0.023177 -0.0578019 9.98469e-19)
(-0.0186282 -0.0429268 -4.77475e-19)
(-0.00858767 -0.0273418 -8.0307e-19)
(0.0180705 -0.00145913 4.16727e-20)
(0.0711794 0.0371381 2.70533e-19)
(0.148894 0.0783693 4.7989e-19)
(-0.0198542 -0.0577177 -3.49596e-20)
(-0.0154355 -0.0447296 5.17197e-19)
(-0.00267518 -0.0338027 3.70682e-19)
(0.028131 -0.0167949 3.09878e-19)
(0.0841214 0.0084932 -1.31646e-21)
(0.162622 0.0351636 -2.37992e-19)
(-0.0158313 -0.0575768 -1.05972e-18)
(-0.0119132 -0.0470196 0)
(0.00295998 -0.0413903 0)
(0.0367723 -0.0336532 -1.51997e-19)
(0.0949003 -0.0213865 -1.32903e-19)
(0.173989 -0.00816493 0)
(-0.0114654 -0.0572772 0)
(-0.00829353 -0.0495147 0)
(0.00808959 -0.0495972 0)
(0.043858 -0.0513427 2.07852e-19)
(0.10351 -0.0518823 -1.48003e-19)
(0.183217 -0.0514207 0)
(-0.00703915 -0.0567512 -1.31909e-19)
(-0.00476661 -0.0519726 0)
(0.0125551 -0.0579589 -1.74875e-22)
(0.0492963 -0.0692429 -3.76356e-20)
(0.10993 -0.0824878 0)
(0.190389 -0.0945143 0)
(-0.00275807 -0.0559579 1.27814e-19)
(-0.00146305 -0.0541891 0)
(0.0162782 -0.06604 0)
(0.053035 -0.0867684 0)
(0.114127 -0.11274 0)
(0.19547 -0.137398 0)
(0.00124399 -0.0548728 0)
(0.0015532 -0.0559913 0)
(0.0192652 -0.0734241 0)
(0.0550619 -0.103335 0)
(0.116059 -0.14216 -2.62419e-19)
(0.198304 -0.180006 0)
(0.00489212 -0.0534872 -1.05743e-18)
(0.00428277 -0.0572326 -3.14147e-20)
(0.0216086 -0.0796991 3.98069e-19)
(0.0554099 -0.118326 0)
(0.11568 -0.170196 5.31307e-19)
(0.198593 -0.222219 2.33398e-19)
(0.00814811 -0.051809 9.45324e-22)
(0.00678291 -0.0577946 -3.21605e-20)
(0.0234836 -0.0844438 7.16239e-20)
(0.0541711 -0.131064 -4.02217e-20)
(0.112967 -0.196144 -2.04353e-19)
(0.195839 -0.263766 -3.53757e-19)
(0.0109888 -0.049868 9.67104e-19)
(0.00915423 -0.0575919 -1.03517e-18)
(0.0251368 -0.0872141 -3.99638e-19)
(0.0515108 -0.140819 6.59e-19)
(0.107952 -0.219043 0)
(0.18926 -0.304144 0)
(0.0133823 -0.0477267 -2.18013e-18)
(0.0115358 -0.0565949 1.11624e-18)
(0.0268992 -0.0876365 8.39025e-19)
(0.0476524 -0.146734 -1.29306e-18)
(0.1008 -0.237521 -1.42841e-19)
(0.177686 -0.34267 4.35894e-19)
(0.0152681 -0.0454924 2.20011e-18)
(0.0140649 -0.0548655 -7.35113e-20)
(0.0292096 -0.0853899 -1.73003e-18)
(0.0429366 -0.147859 1.46006e-18)
(0.0918733 -0.249703 -5.99575e-19)
(0.159397 -0.378605 -5.06092e-19)
(0.0165695 -0.0433113 0)
(0.0168813 -0.0525675 -7.93048e-20)
(0.0326165 -0.0801767 1.02767e-18)
(0.0378838 -0.143333 4.90325e-21)
(0.0819038 -0.252855 4.81752e-19)
(0.130472 -0.409639 1.90234e-20)
(0.0173189 -0.0413414 1.04569e-19)
(0.0200717 -0.04994 4.35868e-20)
(0.0378679 -0.0718422 -6.70785e-20)
(0.0334348 -0.132438 -8.62952e-19)
(0.0734262 -0.242305 5.35819e-19)
(0.0816566 -0.434499 1.50613e-19)
(0.0178763 -0.0395482 7.25655e-20)
(0.0235797 -0.0472296 1.52562e-18)
(0.0461167 -0.060115 1.20195e-18)
(0.0314502 -0.114633 0)
(0.0717949 -0.211362 1.8596e-20)
(-0.0121702 -0.461137 7.11071e-19)
(0.0195363 -0.0365204 2.56542e-18)
(0.0281112 -0.045444 -1.83331e-18)
(0.0585331 -0.0443822 -1.33237e-18)
(0.0380461 -0.094252 0)
(0.0988368 -0.158482 -2.20858e-19)
(-0.21247 -0.560652 -5.78288e-19)
(0.284996 0.815959 -1.97748e-19)
(0.634939 0.650082 -3.71893e-19)
(0.767081 0.577205 -1.67557e-19)
(0.849055 0.491361 -1.31268e-19)
(0.898348 0.418902 2.87562e-20)
(0.931769 0.358232 0)
(0.956464 0.30935 -2.13678e-19)
(0.976123 0.270512 1.8283e-19)
(0.992315 0.23929 1.64414e-19)
(1.00563 0.213499 1.46336e-19)
(1.01635 0.191432 0)
(1.02471 0.171951 2.557e-19)
(1.03091 0.15439 0)
(1.03514 0.138277 2.22703e-19)
(1.03759 0.123264 -1.09182e-19)
(1.03836 0.109075 1.028e-19)
(1.03757 0.0954928 0)
(1.03527 0.0823654 0)
(1.03159 0.0695879 1.78936e-19)
(1.02674 0.0570194 0)
(1.02097 0.0445287 -8.58255e-20)
(1.01366 0.0328781 -8.05154e-20)
(1.00217 0.0250719 0)
(0.990522 0.0217198 0)
(0.255754 0.655318 0)
(0.553982 0.592027 3.59127e-19)
(0.700458 0.533505 -4.95797e-20)
(0.793335 0.456978 1.49354e-19)
(0.851962 0.389694 -1.11358e-19)
(0.892723 0.333248 -2.56383e-19)
(0.923132 0.287944 -1.60244e-20)
(0.947222 0.252032 1.94022e-19)
(0.966888 0.223142 -5.30868e-19)
(0.983004 0.199202 1.63405e-19)
(0.99606 0.178629 0)
(1.00644 0.160409 -3.97119e-19)
(1.01444 0.143947 2.51585e-19)
(1.02033 0.128815 -1.19562e-19)
(1.02433 0.11469 0)
(1.02658 0.101312 -1.02929e-19)
(1.02722 0.0884771 -1.02764e-19)
(1.02634 0.0760464 9.89241e-20)
(1.02407 0.0639376 -1.83416e-19)
(1.02065 0.0520503 5.44436e-19)
(1.01633 0.0403003 -3.56237e-19)
(1.01052 0.0293518 -4.35724e-19)
(1.00077 0.0216811 8.22931e-20)
(0.990926 0.0179679 2.31192e-19)
(0.246558 0.550948 -5.72744e-19)
(0.500303 0.52594 0)
(0.64717 0.479478 3.51652e-19)
(0.74556 0.414005 0)
(0.810871 0.35423 -2.84354e-19)
(0.857533 0.303621 2.5478e-19)
(0.892762 0.262915 2.26695e-19)
(0.920684 0.230573 0)
(0.943407 0.204452 1.8001e-19)
(0.962029 0.182695 2.15722e-21)
(0.977211 0.163893 -3.09053e-19)
(0.989454 0.147178 0)
(0.99914 0.132035 -1.25733e-19)
(1.00659 0.118086 2.40848e-19)
(1.01205 0.105037 0)
(1.01571 0.0926457 0)
(1.01771 0.0807266 1.03075e-19)
(1.01817 0.0691602 -9.93287e-20)
(1.01725 0.05789 -9.60449e-20)
(1.01519 0.0468564 3.78156e-19)
(1.01224 0.0360133 -2.77753e-19)
(1.00783 0.0259122 8.7913e-20)
(0.999768 0.0185191 -8.54892e-20)
(0.99163 0.0146108 7.82692e-20)
(0.242553 0.460439 5.5021e-19)
(0.463558 0.454906 0)
(0.605979 0.419598 -4.2148e-19)
(0.706169 0.365553 -1.94547e-19)
(0.775752 0.31434 -3.1754e-19)
(0.82679 0.270434 -1.44421e-19)
(0.865832 0.234924 -2.52391e-19)
(0.896902 0.206562 0)
(0.922204 0.183517 -3.86579e-19)
(0.942992 0.164197 1.76226e-19)
(0.960052 0.147397 1.54539e-19)
(0.973967 0.132401 -1.47826e-19)
(0.985181 0.118775 -2.69664e-19)
(0.994056 0.106192 1.24179e-19)
(1.00087 0.0943886 -3.59334e-19)
(1.00582 0.0831488 3.44429e-19)
(1.00909 0.0723067 0)
(1.01081 0.0617661 1.03079e-19)
(1.01115 0.0514989 -1.04197e-19)
(1.01036 0.0414819 -1.97257e-19)
(1.00866 0.0316964 0)
(1.00553 0.0225735 -9.41358e-20)
(0.999083 0.0156019 -3.5752e-19)
(0.992533 0.0116409 2.80224e-20)
(0.244229 0.381141 6.09908e-19)
(0.439122 0.384518 0)
(0.574982 0.357745 4.18439e-19)
(0.674682 0.314198 5.5293e-19)
(0.746654 0.271642 -8.25308e-21)
(0.800705 0.234709 1.35531e-19)
(0.842597 0.204636 2.50725e-19)