/*--------------------------------*- C++ -*----------------------------------*\
  =========                 |
  \\      /  F ield         | OpenFOAM: The Open Source CFD Toolbox
   \\    /   O peration     | Website:  https://openfoam.org
    \\  /    A nd           | Version:  11
     \\/     M anipulation  |
\*---------------------------------------------------------------------------*/
FoamFile
{
    format      ascii;
    class       volScalarField;
    location    "1.8";
    object      epsilon;
}
// * * * * * * * * * * * * * * * * * * * * * * * * * * * * * * * * * * * * * //

dimensions      [0 2 -3 0 0 0 0];

internalField   nonuniform List<scalar> 
2880
(
2.3803
5.73683
8.78212
9.78022
10.7087
52.7387
0.974538
2.54878
4.11124
5.10005
6.49388
14.2773
0.259519
1.95609
2.98103
3.77813
4.83991
7.56658
1.20463
1.79051
2.49231
3.12672
3.89887
5.09974
1.46406
1.72546
2.21243
2.7006
3.25597
3.86377
1.70851
1.6985
2.02305
2.38673
2.7756
3.09507
1.92073
1.67824
1.88543
2.14347
2.40507
2.56279
2.09218
1.65548
1.77645
1.94939
2.11513
2.17401
2.21788
1.6259
1.68476
1.792
1.88667
1.88208
2.29604
1.58839
1.60541
1.66391
1.70655
1.65938
2.32845
1.5444
1.53679
1.56083
1.56563
1.48903
2.32041
1.49688
1.47932
1.48011
1.4572
1.35999
2.28068
1.44939
1.43411
1.42015
1.3766
1.26431
2.2076
1.40401
1.4023
1.38064
1.32065
1.19649
2.09542
1.36152
1.38678
1.36328
1.2885
1.15306
1.94594
1.32258
1.38536
1.36456
1.27914
1.13364
1.76464
1.28763
1.40177
1.38974
1.29304
1.1361
1.55992
1.25644
1.43935
1.44385
1.33689
1.16563
1.34049
1.22744
1.50314
1.53634
1.42232
1.23195
1.19209
1.19677
1.60066
1.68596
1.57402
1.35877
0.263002
1.16276
1.7443
1.93157
1.84687
1.60693
0.238037
1.14387
1.96337
2.36794
2.37512
2.18146
0.877586
1.20513
2.36461
3.30262
3.56326
4.1201
1.92965
1.92732
3.50165
5.83525
6.62388
26.5432
22.4468
8.57792
4.12553
2.18492
1.17495
0.629514
0.338161
0.184644
0.103787
0.0605435
0.036781
0.0232803
0.0153355
0.0104973
0.00745435
0.00548155
0.00416455
0.00325865
0.00261394
0.00213309
0.00174678
0.00140694
0.00109263
0.000758879
10.8029
5.75815
3.2035
1.76929
0.957571
0.510839
0.272915
0.148535
0.0834279
0.0487051
0.029627
0.0187735
0.0123757
0.00847387
0.00601751
0.00442444
0.00336113
0.00263024
0.00211073
0.00172406
0.00141469
0.00114614
0.000906061
0.000665811
6.72297
4.31356
2.54484
1.43027
0.77487
0.411964
0.219524
0.119443
0.0671868
0.0393075
0.0239569
0.0152006
0.0100268
0.00686607
0.00487462
0.00358306
0.00272173
0.00213073
0.00171198
0.00140189
0.00115597
0.000946336
0.000765466
0.000593938
4.81088
3.35971
2.03456
1.15213
0.623974
0.331216
0.176506
0.0962266
0.0542865
0.0318508
0.0194533
0.0123577
0.00815426
0.00558259
0.00396167
0.00291123
0.00221207
0.00173398
0.00139708
0.0011497
0.000956003
0.000794455
0.000660093
0.00053883
3.67793
2.64826
1.62993
0.926794
0.50185
0.266426
0.142258
0.0778178
0.0440624
0.0259305
0.0158683
0.0100889
0.00665726
0.00455572
0.00323165
0.00237516
0.00180701
0.00142058
0.00115044
0.00095436
0.000803286
0.000680324
0.000581757
0.000496837
2.91651
2.11458
1.31244
0.747382
0.404648
0.21508
0.115195
0.0632682
0.0359612
0.0212231
0.0130083
0.00827451
0.00545864
0.0037338
0.00264855
0.00194867
0.00148671
0.0011748
0.000959034
0.000804669
0.00068796
0.000595413
0.000523875
0.000464914
2.37044
1.71285
1.06543
0.606232
0.32809
0.174676
0.0938818
0.0517753
0.0295345
0.0174726
0.010722
0.00682131
0.00449846
0.00307648
0.00218392
0.00161079
0.00123496
0.000983568
0.000811903
0.000691163
0.000601778
0.000532776
0.000481278
0.000440653
1.96601
1.40922
0.874101
0.49592
0.268117
0.142973
0.0771036
0.0426844
0.0244248
0.0144777
0.00889097
0.00565631
0.00372946
0.00255164
0.00181486
0.00134437
0.00103835
0.00083596
0.000699843
0.00060593
0.000537956
0.000486874
0.00045001
0.000422224
1.66204
1.17851
0.726058
0.409914
0.221197
0.118085
0.0638693
0.0354733
0.0203503
0.0120801
0.00742211
0.00472178
0.00311396
0.00213342
0.0015227
0.00113533
0.000885784
0.000722913
0.000615242
0.000542492
0.000491055
0.00045341
0.000427121
0.000408276
1.43272
1.00212
0.611318
0.342797
0.184427
0.0984915
0.053392
0.0297314
0.01709
0.0101555
0.00624188
0.00397182
0.00262175
0.00180088
0.00129224
0.000972115
0.000768152
0.000636997
0.000551905
0.000495653
0.000456818
0.00042914
0.00041045
0.000397819
1.25927
0.86673
0.52211
0.290244
0.155492
0.0829934
0.0450569
0.0251385
0.0144715
0.00860648
0.0052921
0.00336981
0.00222852
0.00153706
0.0011111
0.000845322
0.000678048
0.000572208
0.000504876
0.000461335
0.000431997
0.000411661
0.000398432
0.000390104
1.12832
0.762604
0.452482
0.248891
0.132597
0.0706621
0.0383877
0.0214462
0.0123598
0.00735623
0.00452663
0.00288644
0.00191468
0.00132825
0.000969252
0.000747351
0.000609514
0.000523757
0.000470258
0.000436402
0.000414157
0.000399217
0.00038992
0.000384554
1.03057
0.682606
0.397915
0.216156
0.114362
0.0607844
0.033017
0.0184613
0.0106497
0.00634425
0.00390883
0.00249832
0.00166453
0.00116341
0.00085865
0.000672116
0.000557808
0.000487869
0.000445036
0.000418481
0.000401498
0.000390519
0.000384063
0.000380704
0.959529
0.621505
0.354996
0.190069
0.099737
0.0528162
0.0286615
0.0160338
0.00925859
0.0055228
0.00340959
0.00218677
0.0014655
0.00103374
0.000772865
0.00061477
0.000519178
0.000461598
0.000426908
0.000405799
0.00039268
0.000384585
0.000380229
0.000378167
0.910812
0.57547
0.321135
0.169122
0.0879325
0.0463479
0.025102
0.0140466
0.00812157
0.00485419
0.00300584
0.00193696
0.00130762
0.000932225
0.000706812
0.000571493
0.000490682
0.000442667
0.00041413
0.000397042
0.000386716
0.000380736
0.000377839
0.00037659
0.881714
0.541699
0.294351
0.152191
0.0783392
0.0410509
0.022167
0.0124082
0.00718771
0.00430864
0.00267933
0.00173716
0.00118302
0.000853407
0.000656537
0.000539331
0.000470071
0.000429363
0.000405415
0.000391265
0.000382934
0.000378459
0.000376434
0.000375657
0.87137
0.518134
0.273081
0.138519
0.0704279
0.036648
0.0197223
0.011047
0.00641702
0.00386273
0.00241565
0.00157815
0.00108557
0.000793043
0.000619012
0.000516061
0.00045569
0.000420456
0.000399856
0.000387795
0.000380838
0.000377286
0.00037575
0.000375204
0.878734
0.503174
0.256315
0.127276
0.063771
0.0329212
0.0176675
0.00990729
0.00577819
0.00349801
0.00220348
0.00145266
0.00101044
0.000747837
0.000591906
0.000499994
0.000446302
0.000415039
0.000396775
0.000386105
0.000380027
0.000376954
0.000375589
0.00037509
0.905898
0.495373
0.243378
0.117761
0.0580186
0.0297053
0.015913
0.0089451
0.00524676
0.00320008
0.00203392
0.00135502
0.000953899
0.000715218
0.000573404
0.000489822
0.000440965
0.000412433
0.000395686
0.000385853
0.000380172
0.000377168
0.000375738
0.000375126
0.956287
0.494041
0.232855
0.109309
0.052874
0.0268647
0.0143898
0.00812624
0.00480382
0.00295778
0.00190011
0.00128085
0.000913057
0.000693241
0.000562154
0.000484599
0.00043902
0.000412171
0.000396235
0.000386726
0.00038111
0.000377905
0.000376172
0.000375263
1.03614
0.498349
0.223231
0.101262
0.0480801
0.0242914
0.0130469
0.0074252
0.00443519
0.0027627
0.0017969
0.00122691
0.000885806
0.000680506
0.000557217
0.000483672
0.00044
0.000413968
0.000398243
0.00038863
0.00038272
0.00037909
0.000376878
0.000375515
1.15594
0.506032
0.212652
0.0929471
0.0434223
0.0219072
0.0118495
0.00682417
0.00413077
0.00260885
0.0017206
0.00119088
0.000870709
0.000676124
0.000557981
0.000486721
0.000443791
0.000417737
0.000401667
0.000391556
0.000385042
0.000380738
0.000377852
0.00037589
1.34076
0.506621
0.198312
0.0837082
0.0387562
0.0196702
0.0107795
0.00631274
0.00388417
0.00249233
0.00166886
0.00117136
0.00086691
0.000679453
0.00056429
0.000493682
0.000450369
0.000423536
0.000406588
0.000395584
0.000388158
0.000382926
0.000379175
0.000376463
1.61206
0.480251
0.176801
0.073161
0.0340667
0.0175839
0.00983774
0.00588742
0.00369248
0.00241118
0.00164056
0.00116772
0.000874054
0.000690755
0.000576217
0.000504718
0.000459947
0.00043158
0.000413207
0.000400898
0.00039223
0.000385806
0.000380988
0.000377352
1.97739
1.52489
2.4339
4.03269
5.03556
5.45782
0.879517
1.21888
2.137
3.10039
3.40887
2.53662
0.237008
1.31416
2.03482
2.44084
2.3059
1.39601
0.260929
1.41123
1.87608
1.99646
1.63146
0.884094
0.280724
1.46248
1.73405
1.66369
1.2064
0.619772
1.37927
1.47419
1.61621
1.41043
0.937754
0.475047
1.63157
1.47041
1.51667
1.2261
0.7709
0.392122
1.85515
1.46535
1.43558
1.09859
0.670313
0.346266
2.03889
1.46473
1.37529
1.01706
0.614987
0.325454
2.17814
1.4717
1.33827
0.973393
0.59332
0.323765
2.27108
1.48812
1.32577
0.96282
0.59655
0.337861
2.31754
1.51467
1.33348
0.975428
0.62379
0.369935
2.3201
1.5517
1.36493
1.0192
0.676158
0.42044
2.29184
1.59916
1.42005
1.09051
0.754574
0.492786
2.25646
1.65559
1.49577
1.18978
0.862439
0.592544
2.20156
1.71408
1.58865
1.31784
1.00448
0.727462
2.11544
1.76557
1.69276
1.47541
1.18634
0.907865
1.98631
1.79995
1.80263
1.66085
1.41385
1.14774
1.80186
1.8088
1.91941
1.8668
1.69319
1.46557
1.54974
1.79074
2.04841
2.09973
2.0275
1.88211
1.22003
1.75301
2.20421
2.38191
2.42247
2.41904
0.259218
1.73701
2.46442
2.76539
2.92805
3.22659
0.987052
2.05017
3.13306
3.5508
3.82219
4.65283
2.40846
4.35178
6.30658
6.53368
6.18163
6.20377
1.20405
0.396457
0.146446
0.0617186
0.0295298
0.0156942
0.00904723
0.00555075
0.00355585
0.00236575
0.00163589
0.00118028
0.000892734
0.00071022
0.000594143
0.000520229
0.000472916
0.000442226
0.000421843
0.00040778
0.000397509
0.000389601
0.000383489
0.000378725
0.792298
0.289673
0.114704
0.050881
0.0254785
0.0140895
0.00842062
0.00530802
0.00347677
0.00235725
0.00165592
0.00120998
0.000923604
0.000738628
0.000618762
0.000540838
0.000489826
0.000455954
0.00043291
0.000416594
0.000404327
0.000394622
0.000386905
0.000380783
0.530515
0.208471
0.088491
0.0418959
0.0221774
0.0128536
0.00797402
0.00516672
0.00346046
0.00238883
0.00170311
0.00125872
0.000968248
0.000777273
0.000651163
0.000567472
0.000511467
0.000473441
0.000447003
0.000427872
0.000413142
0.000401178
0.000391302
0.000383599
0.370089
0.153326
0.069476
0.0351958
0.0197434
0.0120202
0.0077221
0.00513717
0.00351224
0.00246558
0.00178131
0.00132953
0.0010291
0.00082815
0.000693014
0.000601547
0.000539048
0.000495712
0.000464967
0.000442271
0.000424401
0.000409517
0.000396954
0.000387287
0.272737
0.117887
0.056766
0.0306519
0.0182049
0.011581
0.00767646
0.0052289
0.00364203
0.00259462
0.00189604
0.00142677
0.00110966
0.000894126
0.000746711
0.000645092
0.00057429
0.000524207
0.000487965
0.000460685
0.000438782
0.00042027
0.000404684
0.000392378
0.214233
0.0962395
0.048975
0.0279853
0.0174882
0.0115362
0.00785349
0.00545865
0.00386242
0.00278581
0.00205497
0.00155645
0.00121472
0.000979084
0.000815449
0.000700771
0.000619433
0.000560809
0.000517583
0.000484462
0.000457453
0.000434427
0.000415104
0.000399301
0.180406
0.0841543
0.0449499
0.0269646
0.0175191
0.011902
0.00827883
0.00584865
0.00419098
0.00305271
0.00226857
0.00172672
0.00135069
0.00108816
0.000903397
0.000772019
0.00067734
0.00060793
0.000555859
0.00051531
0.000481803
0.000453027
0.000428908
0.000408426
0.163178
0.0790151
0.0439791
0.0273106
0.0183165
0.0127221
0.00899284
0.00643104
0.00465234
0.00341399
0.00255104
0.00194851
0.00152612
0.00122813
0.00101603
0.000863335
0.000751768
0.000668748
0.000605493
0.000555502
0.000513668
0.000477429
0.000447012
0.000420256
0.158161
0.0791711
0.0453646
0.0291499
0.0199644
0.0140729
0.0100567
0.00725211
0.00528094
0.00389532
0.0029217
0.00223656
0.00175245
0.00140802
0.00116061
0.000980649
0.000847659
0.000747444
0.000670051
0.000608051
0.00055551
0.000509504
0.0004707
0.000435463
0.161662
0.0841185
0.0497199
0.0325942
0.0226075
0.0160758
0.0115614
0.00837833
0.00612524
0.00453227
0.003407
0.00261086
0.00204504
0.00163988
0.00134675
0.00113181
0.000971533
0.000849519
0.000754219
0.000676942
0.000610634
0.000551815
0.000501751
0.000454952
0.175732
0.0945679
0.057164
0.0379607
0.0265033
0.0189188
0.0136413
0.00990528
0.00725365
0.00537441
0.00404341
0.00309873
0.00242475
0.00193995
0.00158736
0.00132728
0.00113202
0.000982226
0.000864166
0.000767433
0.000683443
0.000607848
0.000542618
0.000479941
0.200329
0.111244
0.0685093
0.0458262
0.0320577
0.0228852
0.0164936
0.011971
0.00876372
0.00649158
0.00488177
0.00373787
0.00292012
0.00233029
0.00189985
0.00158107
0.00134063
0.00115518
0.00100804
0.000886476
0.000779804
0.00068231
0.000596671
0.000512055
0.23776
0.136039
0.0850579
0.0570989
0.0398917
0.0283995
0.0204097
0.0147769
0.010796
0.00798334
0.00599385
0.00458102
0.00357073
0.00284123
0.00230796
0.00191216
0.00161286
0.00138125
0.00119671
0.00104333
0.000907556
0.000781579
0.000668534
0.000553417
0.291895
0.171951
0.108857
0.07317
0.0509464
0.0360994
0.0258233
0.0186197
0.0135559
0.00999376
0.00748247
0.00570306
0.00443226
0.00351512
0.00284461
0.00234671
0.0019699
0.00167796
0.00144488
0.00125049
0.00107734
0.000914422
0.000764633
0.00060672
0.368409
0.223387
0.142999
0.0961437
0.0666446
0.0469469
0.0333862
0.0239432
0.0173479
0.0127347
0.00949752
0.00721218
0.00558456
0.00441225
0.00355642
0.00292158
0.00244154
0.00206984
0.00177311
0.00152541
0.00130408
0.00109336
0.000894316
0.000675346
0.475397
0.296749
0.192052
0.129167
0.0891325
0.0624001
0.0440873
0.0314191
0.0226311
0.0165232
0.0122615
0.00926772
0.00714436
0.00562034
0.00451104
0.00369032
0.00307122
0.00259292
0.00221178
0.00189403
0.00161018
0.00133775
0.00107268
0.000764076
0.624056
0.401093
0.262605
0.176867
0.121619
0.0846661
0.0594352
0.0420752
0.0301069
0.0218419
0.0161111
0.012109
0.00928597
0.0072699
0.00580926
0.00473338
0.00392533
0.00330369
0.00281015
0.00240003
0.00203489
0.00168332
0.00132981
0.000884936
0.829319
0.548722
0.363811
0.245849
0.168806
0.117052
0.0817276
0.0574932
0.0408596
0.0294359
0.0215637
0.0161018
0.0122743
0.00955866
0.00760417
0.0061745
0.00510888
0.00429607
0.00365677
0.00313086
0.00266781
0.00222287
0.00175734
0.00113129
1.11092
0.75556
0.507684
0.345079
0.237321
0.164384
0.114417
0.0800986
0.0565726
0.0404685
0.0294267
0.0218138
0.0165172
0.0127888
0.0101285
0.00820214
0.00678446
0.0057218
0.00490716
0.00426325
0.00372943
0.00325793
0.00286172
0.00278209
1.49734
1.04111
0.708664
0.485742
0.335899
0.233376
0.162525
0.113547
0.079845
0.0567608
0.0409702
0.0301358
0.0226487
0.017422
0.0137294
0.0110883
0.00917761
0.0077841
0.0067683
0.00604196
0.0055503
0.00527108
0.00528684
0.00588935
2.04053
1.42774
0.981525
0.679882
0.474785
0.332583
0.232929
0.163133
0.114602
0.0811395
0.0581945
0.0424749
0.0316628
0.0241687
0.0189237
0.0152171
0.0125812
0.0107127
0.00942255
0.00860089
0.00818937
0.00818264
0.00865801
0.00979044
2.78174
1.92975
1.33524
0.936565
0.663501
0.471338
0.334081
0.235983
0.166495
0.117873
0.0842141
0.0610571
0.0451371
0.0341487
0.0265124
0.0211697
0.0174254
0.0148344
0.0131242
0.0121368
0.0117834
0.0120164
0.0129044
0.014502
3.80677
2.53946
1.76147
1.25466
0.906086
0.656772
0.474424
0.340481
0.24296
0.173044
0.123718
0.0893536
0.0655789
0.0491523
0.0377719
0.029861
0.0243732
0.0206368
0.018237
0.016924
0.016541
0.0169555
0.0182226
0.0202848
5.31096
3.47945
2.28381
1.6239
1.1957
0.888692
0.658684
0.484046
0.352235
0.254402
0.183275
0.132549
0.0968919
0.0720347
0.0547596
0.0427659
0.0344833
0.0288833
0.0253156
0.0233687
0.0227685
0.0232646
0.0248558
0.0274185
1.9668
2.58016
3.12183
3.22365
2.82888
2.88676
0.871869
1.13603
1.44633
1.57531
1.56014
1.86386
0.233805
0.887129
1.15111
1.24511
1.29123
1.55397
0.256122
0.851328
1.07225
1.14872
1.20753
1.41622
0.271192
0.885174
1.05783
1.12654
1.18872
1.35852
1.1891
0.964826
1.0715
1.1363
1.20136
1.3437
1.2819
1.03397
1.09975
1.16475
1.23425
1.35808
1.40732
1.08313
1.13344
1.20345
1.27944
1.39374
1.51379
1.1177
1.16879
1.24817
1.33244
1.44346
1.59771
1.14186
1.20489
1.29686
1.39066
1.50228
1.65908
1.15915
1.24202
1.34864
1.45236
1.56655
1.69932
1.17251
1.28075
1.40325
1.51645
1.63347
1.72141
1.18447
1.32164
1.46082
1.58235
1.70104
1.71602
1.19458
1.36543
1.52194
1.6502
1.76823
1.67989
1.20247
1.41313
1.58785
1.72105
1.83523
1.61304
1.20815
1.466
1.66068
1.79738
1.90395
1.5175
1.21177
1.52576
1.74402
1.88389
1.97867
1.39729
1.21359
1.59499
1.84386
1.98897
2.06766
1.26065
1.21394
1.67775
1.97032
2.12481
2.18726
0.28045
1.21281
1.78038
2.13954
2.31917
2.37436
0.262948
1.22083
1.91577
2.38457
2.62854
2.709
0.238094
1.25145
2.12481
2.78225
3.17526
3.42773
0.874105
1.38115
2.58766
3.60755
4.25509
5.63999
1.9094
2.1626
4.25152
6.15591
6.64482
26.5553
5.48155
4.25967
2.81478
2.01542
1.51089
1.15431
0.882393
0.668663
0.500356
0.369796
0.270844
0.197698
0.144814
0.107211
0.0807565
0.0622749
0.0494797
0.0408127
0.0352515
0.0321195
0.0309471
0.0313517
0.0331493
0.0362565
5.01019
4.79769
3.58609
2.49993
1.8636
1.44346
1.13357
0.887508
0.686755
0.523553
0.393533
0.292752
0.21681
0.160992
0.120755
0.0921726
0.0721556
0.0584524
0.0495032
0.0442294
0.0418433
0.0418483
0.0436163
0.0472755
3.53666
4.9791
4.43567
3.22099
2.33379
1.78244
1.40978
1.12968
0.902572
0.712336
0.553432
0.423536
0.320431
0.241046
0.181581
0.138057
0.106862
0.0850634
0.0704552
0.0614282
0.0567369
0.0555796
0.0571153
0.0611606
2.49811
4.55997
4.73595
4.1505
3.06953
2.27753
1.75897
1.40582
1.14149
0.926882
0.744774
0.589529
0.45961
0.353977
0.270745
0.207097
0.159763
0.125589
0.101881
0.0864889
0.0776284
0.074022
0.0748127
0.0789001
2.01341
3.64758
4.6036
4.53016
3.9586
3.03261
2.29442
1.78122
1.42807
1.16782
0.959601
0.783166
0.631007
0.50119
0.3932
0.306088
0.238027
0.186601
0.149269
0.123683
0.107693
0.099482
0.0983274
0.101996
1.78405
2.91255
4.06746
4.51932
4.389
3.8631
3.06071
2.36149
1.84077
1.47388
1.20743
0.999551
0.826195
0.676585
0.547267
0.437524
0.346981
0.274722
0.219276
0.178869
0.151604
0.13552
0.129786
0.132556
1.68067
2.4553
3.43734
4.20202
4.44146
4.29854
3.83558
3.13177
2.46542
1.93215
1.54194
1.25987
1.04602
0.872618
0.724783
0.596472
0.485957
0.392948
0.317233
0.258274
0.215194
0.186836
0.172667
0.173238
1.64724
2.20257
2.96297
3.71126
4.2303
4.37026
4.23843
3.84406
3.22413
2.59115
2.04756
1.63018
1.32507
1.09884
0.921578
0.774198
0.647238
0.537126
0.443043
0.365112
0.30355
0.258699
0.231572
0.226828
1.65457
2.07968
2.66181
3.29966
3.85797
4.22247
4.31046
4.19636
3.86354
3.31738
2.72197
2.1765
1.73493
1.40333
1.15906
0.973434
0.824204
0.698249
0.589455
0.495789
0.41707
0.354208
0.310182
0.296081
1.68949
2.03374
2.49176
3.01355
3.52092
3.93838
4.20045
4.25747
4.15894
3.87454
3.39397
2.84317
2.30931
1.85296
1.49628
1.22998
1.03078
0.875812
0.749029
0.641422
0.549102
0.470773
0.408562
0.381478
1.73967
2.02825
2.40263
2.82901
3.26343
3.65918
3.97242
4.16283
4.19857
4.11131
3.86385
3.44411
2.94522
2.43773
1.9804
1.60535
1.31633
1.09882
0.932865
0.801124
0.692653
0.601154
0.522416
0.480005
1.79688
2.04497
2.35599
2.70686
3.07066
3.41854
3.72388
3.95965
4.09873
4.12006
4.04185
3.82539
3.46298
3.02147
2.55459
2.11311
1.73193
1.42439
1.18616
1.00378
0.861022
0.746457
0.648838
0.58859
1.85522
2.06905
2.32599
2.61358
2.91294
3.20654
3.47901
3.71407
3.89334
3.99764
4.01102
3.94119
3.75404
3.44792
3.0696
2.65668
2.24863
1.87742
1.56134
1.30447
1.10109
0.941657
0.80968
0.718013
1.91079
2.09058
2.29745
2.52674
2.76611
3.00491
3.23481
3.44652
3.62868
3.76778
3.849
3.85919
3.79875
3.6436
3.39837
3.08841
2.73902
2.38022
2.03691
1.72679
1.45941
1.23611
1.05192
0.912039
1.9617
2.10389
2.26087
2.43477
2.61763
2.80349
2.9879
3.16565
3.32991
3.47175
3.58033
3.64432
3.65311
3.60428
3.48223
3.29503
3.05831
2.7824
2.48498
2.184
1.89641
1.6332
1.40416
1.21885
2.00775
2.10658
2.213
2.33433
2.46561
2.60344
2.74462
2.88554
3.02141
3.14623
3.25261
3.33264
3.37744
3.3824
3.34275
3.25107
3.11028
2.93053
2.72146
2.49393
2.25654
2.01869
1.79777
1.61463
2.05035
2.0993
2.15465
2.22774
2.31512
2.41353
2.51912
2.62763
2.7339
2.83331
2.92006
2.98864
3.03353
3.05296
3.04361
3.00199
2.92679
2.82041
2.68591
2.5281
2.35622
2.18083
2.01915
1.88792
2.09239
2.08297
2.08875
2.12004
2.17345
2.24427
2.3265
2.41422
2.49952
2.57823
2.64348
2.6892
2.71304
2.71791
2.70022
2.66098
2.60211
2.52555
2.43329
2.3278
2.21318
2.09654
1.98943
1.88934
2.14074
2.05828
2.019
2.01621
2.04675
2.10346
2.17763
2.26213
2.35218
2.43582
2.50117
2.53831
2.55192
2.53754
2.49533
2.43068
2.34865
2.25416
2.15177
2.04538
1.93885
1.83819
1.74868
1.65603
2.20205
2.02982
1.94446
1.92039
1.93904
1.99566
2.07813
2.18135
2.29145
2.38952
2.46543
2.50828
2.52375
2.50482
2.45375
2.37818
2.28404
2.17677
2.06142
1.94283
1.82555
1.71361
1.60945
1.50779
2.28871
1.99942
1.86983
1.83308
1.85199
1.92054
2.02594
2.15341
2.28787
2.41482
2.51631
2.57704
2.60131
2.57645
2.51383
2.42391
2.31583
2.19744
2.07485
1.95234
1.83331
1.71991
1.61071
1.50635
2.42417
1.96838
1.7977
1.756
1.78723
1.87903
2.01316
2.17818
2.3563
2.51843
2.63506
2.68876
2.67558
2.62732
2.54826
2.44581
2.32852
2.20398
2.07818
1.95554
1.83906
1.72959
1.62421
1.52373
2.63935
1.93562
1.73229
1.69526
1.75155
1.87696
2.05623
2.27382
2.49591
2.66912
2.74976
2.73727
2.67335
2.56145
2.42485
2.27911
2.13307
1.9924
1.86074
1.74018
1.63164
1.53406
1.44786
1.36187
2.98989
1.89863
1.68436
1.66608
1.7628
1.93924
2.18415
2.46626
2.72101
2.858
2.86446
2.71422
2.48339
2.23731
2.00684
1.80097
1.61948
1.45768
1.31679
1.19571
1.09332
1.00403
0.935877
0.859791
1.85766
1.84553
3.45226
4.78451
5.63217
6.18991
0.8578
1.27851
2.28661
3.2712
4.57665
6.13852
0.23325
1.24792
2.04377
2.78319
3.59213
4.01964
0.257876
1.26433
1.92829
2.497
2.93705
3.05368
0.274371
1.27535
1.83154
2.26316
2.53159
2.58854
1.20486
1.27677
1.73675
2.06625
2.26383
2.33002
1.32169
1.26578
1.64379
1.89963
2.06761
2.16805
1.42241
1.24696
1.55445
1.75883
1.91074
2.04695
1.49912
1.22332
1.46962
1.63546
1.77759
1.9473
1.54947
1.19627
1.38961
1.52442
1.65956
1.86121
1.57242
1.16677
1.31437
1.42265
1.5522
1.78701
1.56988
1.13557
1.24373
1.32844
1.4535
1.7262
1.54098
1.1033
1.1775
1.24089
1.36278
1.68096
1.49133
1.07067
1.11537
1.15966
1.27973
1.65277
1.4289
1.0373
1.05689
1.08455
1.20389
1.64356
1.35006
0.998174
1.00095
1.01504
1.13494
1.65674
1.24563
0.944415
0.945219
0.950613
1.07264
1.69706
1.18727
0.862343
0.887958
0.890533
1.01657
1.76304
0.273641
0.755151
0.831372
0.835074
0.966054
1.84383
0.261689
0.676956
0.781821
0.787219
0.920678
1.92143
0.244874
0.632316
0.751021
0.755739
0.882917
1.99295
0.222896
0.648436
0.763682
0.763678
0.867305
2.08463
0.832425
0.845058
0.90448
0.883114
0.927807
2.27561
1.94205
1.97209
1.91381
1.72787
1.47551
2.19699
2.86124
1.8574
1.67365
1.69111
1.84233
2.09519
2.42517
2.7725
3.02196
3.08966
2.92409
2.57394
2.18308
1.83497
1.5493
1.31696
1.12458
0.96668
0.834697
0.722213
0.626572
0.543669
0.476082
0.411893
2.61142
1.85477
1.71715
1.7925
2.0232
2.37253
2.79665
3.18251
3.36885
3.29622
2.93196
2.38898
1.91509
1.54803
1.27333
1.0624
0.89395
0.753646
0.633667
0.530648
0.443141
0.369653
0.30916
0.261308
2.39514
1.90545
1.83713
1.99715
2.32772
2.78985
3.2998
3.66062
3.70364
3.40487
2.77631
2.15303
1.67795
1.34045
1.09848
0.914895
0.764435
0.636875
0.528087
0.435609
0.357406
0.291999
0.238739
0.202103
2.28409
2.01287
2.03974
2.30754
2.76448
3.35467
3.91072
4.13011
3.92224
3.3409
2.53285
1.89176
1.455
1.15499
0.936831
0.767913
0.630191
0.516309
0.422258
0.345099
0.282382
0.232165
0.193933
0.170779
2.24485
2.15112
2.31043
2.7199
3.34144
4.05509
4.54117
4.45616
3.96883
3.00354
2.17115
1.60698
1.23945
0.982022
0.788819
0.635259
0.510196
0.408908
0.327838
0.263948
0.214739
0.178478
0.154402
0.142783
2.23554
2.31246
2.63824
3.24258
4.06456
4.82362
4.97372
4.5697
3.58718
2.53844
1.81523
1.36012
1.05538
0.832656
0.660192
0.522528
0.413026
0.326876
0.260032
0.209166
0.171737
0.145947
0.130502
0.124201
2.23542
2.49184
3.03049
3.89676
4.90722
5.42605
5.14603
4.2687
2.99463
2.08349
1.51961
1.15564
0.896285
0.698047
0.542713
0.421777
0.328797
0.258328
0.205801
0.167558
0.140819
0.123533
0.114122
0.11104
2.2409
2.6938
3.51676
4.70606
5.73412
5.66772
4.99731
3.57638
2.43652
1.73453
1.29259
0.984185
0.752741
0.574859
0.438789
0.335919
0.259248
0.203026
0.16264
0.134501
0.11588
0.10469
0.0993838
0.0983209
2.25303
2.94066
4.14729
5.63731
6.17301
5.69203
4.30562
2.89133
2.01606
1.47413
1.10294
0.829202
0.622322
0.466551
0.350666
0.265641
0.204121
0.160315
0.12982
0.10935
0.0964442
0.0892812
0.0864914
0.0865103
2.28022
3.27122
4.96803
6.45809
6.29458
5.22038
3.50688
2.40315
1.72301
1.26577
0.935173
0.689663
0.507622
0.37421
0.277776
0.208964
0.160492
0.126899
0.104193
0.0894911
0.0806771
0.0762543
0.075072
0.0756292
2.33754
3.7388
5.95234
6.79043
6.13114
4.37154
2.94232
2.065
1.48981
1.08258
0.784676
0.566746
0.409376
0.29741
0.218716
0.16395
0.126246
0.100711
0.0839014
0.0733889
0.0674406
0.0648459
0.0646457
0.0655184
2.4444
4.4044
6.88365
6.83459
5.53628
3.68119
2.53566
1.8004
1.28836
0.918315
0.650911
0.460535
0.327209
0.235006
0.17176
0.128645
0.0995068
0.0801409
0.0676823
0.0601494
0.0561637
0.0547553
0.0550799
0.0561741
2.618
5.30507
7.31332
6.67186
4.74063
3.21244
2.24284
1.58014
1.10803
0.771005
0.534182
0.370843
0.259812
0.184965
0.134683
0.100977
0.0785251
0.0638204
0.0545399
0.0491087
0.0464467
0.045783
0.0463873
0.0475834
2.86768
6.36166
7.40404
6.20636
4.17582
2.86998
1.99502
1.37969
0.944087
0.640905
0.434534
0.296596
0.205381
0.145257
0.105561
0.0792986
0.0619865
0.0507635
0.0437815
0.0398124
0.0380197
0.0377985
0.0385445
0.0397298
3.20036
7.30859
7.31993
5.64553
3.80312
2.60544
1.77806
1.19768
0.797297
0.528019
0.350878
0.235989
0.161867
0.113932
0.082722
0.0622727
0.0488802
0.0402435
0.0349116
0.0319406
0.030691
0.0306966
0.0314797
0.0326125
3.65306
7.88354
7.24148
5.14828
3.49164
2.36239
1.57219
1.02916
0.666852
0.431591
0.281702
0.187073
0.12731
0.0892731
0.0647819
0.0488438
0.0384357
0.0317212
0.0275693
0.0252626
0.0243209
0.0243923
0.0251371
0.0261904
4.30942
8.16636
7.05874
4.82753
3.24846
2.14107
1.38074
0.876811
0.553333
0.350569
0.225192
0.147911
0.0999846
0.0698795
0.0506633
0.0382134
0.0300805
0.0248019
0.0214948
0.0196143
0.018807
0.0188289
0.0194476
0.0203967
5.14694
8.32137
6.87742
4.62643
3.01847
1.92182
1.1992
0.739748
0.455697
0.283293
0.179459
0.116753
0.0784472
0.0546376
0.0395399
0.0297832
0.0233917
0.0191971
0.0165024
0.0148868
0.0140889
0.013946
0.014342
0.0151368
6.12461
8.48476
6.80915
4.41736
2.77599
1.70535
1.03088
0.618997
0.373074
0.228079
0.142743
0.0920929
0.0615294
0.0426856
0.0307918
0.0231126
0.0180591
0.0146942
0.0124578
0.0110108
0.0101425
0.00972861
0.00974452
0.0102429
7.42748
8.84413
6.77226
4.17933
2.52033
1.49457
0.877111
0.514002
0.30389
0.18313
0.113445
0.0726702
0.0482996
0.0333607
0.0239566
0.0178806
0.0138586
0.0111377
0.00926147
0.00794339
0.00699042
0.00626185
0.00567938
0.00545484
9.23794
9.51069
6.65829
3.88311
2.24954
1.29194
0.738705
0.42382
0.246494
0.146786
0.0901876
0.0574432
0.0380105
0.0261432
0.0186804
0.0138499
0.0106329
0.00842635
0.00685967
0.00569301
0.00475698
0.00391968
0.00307039
0.00181507
11.4139
10.361
6.30016
3.51875
1.97124
1.10203
0.616201
0.34723
0.199249
0.117557
0.0717954
0.0455461
0.0300446
0.0205999
0.0146629
0.0108151
0.00824478
0.00647229
0.00520405
0.00425119
0.00348271
0.00280155
0.00212582
0.0012342
14.2319
10.812
5.78329
3.10621
1.69351
0.926832
0.509006
0.282744
0.160596
0.094141
0.0572789
0.0362571
0.0238794
0.016347
0.0116134
0.00854519
0.00649548
0.00508305
0.00407515
0.00332201
0.00271821
0.00218484
0.00166588
0.00103171
18.5937
10.8384
5.11419
2.65379
1.42418
0.768583
0.416556
0.228978
0.129169
0.0754394
0.0458251
0.0289889
0.0190867
0.0130616
0.0092747
0.00682028
0.00518149
0.00405363
0.00325038
0.00265118
0.00217013
0.00174462
0.00133917
0.000878243
)
;

boundaryField
{
    rotor
    {
        type            epsilonWallFunction;
        value           nonuniform List<scalar> 
144
(
2.3803
5.73683
8.78212
9.78022
10.7087
52.7387
2.3803
0.974538
0.259519
1.20463
1.46406
1.70851
1.92073
2.09218
2.21788
2.29604
2.32845
2.32041
2.28068
2.2076
2.09542
1.94594
1.76464
1.55992
1.34049
1.19209
0.263002
0.238037
0.877586
1.92965
1.92965
1.92732
3.50165
5.83525
6.62388
26.5432
1.97739
1.52489
2.4339
4.03269
5.03556
5.45782
1.97739
0.879517
0.237008
0.260929
0.280724
1.37927
1.63157
1.85515
2.03889
2.17814
2.27108
2.31754
2.3201
2.29184
2.25646
2.20156
2.11544
1.98631
1.80186
1.54974
1.22003
0.259218
0.987052
2.40846
2.40846
4.35178
6.30658
6.53368
6.18163
6.20377
1.9668
2.58016
3.12183
3.22365
2.82888
2.88676
1.9668
0.871869
0.233805
0.256122
0.271192
1.1891
1.2819
1.40732
1.51379
1.59771
1.65908
1.69932
1.72141
1.71602
1.67989
1.61304
1.5175
1.39729
1.26065
0.28045
0.262948
0.238094
0.874105
1.9094
1.9094
2.1626
4.25152
6.15591
6.64482
26.5553
1.85766
1.84553
3.45226
4.78451
5.63217
6.18991
1.85766
0.8578
0.23325
0.257876
0.274371
1.20486
1.32169
1.42241
1.49912
1.54947
1.57242
1.56988
1.54098
1.49133
1.4289
1.35006
1.24563
1.18727
0.273641
0.261689
0.244874
0.222896
0.832425
1.94205
1.94205
1.97209
1.91381
1.72787
1.47551
2.19699
)
;
    }
    freestream
    {
        type            inletOutlet;
        inletValue      uniform 0.000375;
        value           nonuniform List<scalar> 
96
(
0.000375
0.000375
0.000375
0.000375
0.000375
0.000375
0.000375
0.000375
0.000375
0.000375
0.000375
0.000375
0.000375
0.000375
0.000375
0.000375
0.000375
0.000375
0.000375
0.000375
0.000375
0.000375
0.000375
0.000375
0.000375
0.000375
0.000375
0.000375
0.000375
0.000375
0.000375
0.000375
0.000375
0.000375
0.000375
0.000375
0.000375
0.000375
0.000375
0.000375
0.000375
0.000375
0.00278209
0.00588935
0.00979044
0.014502
0.0202848
0.0274185
0.0362565
0.0472755
0.0611606
0.0789001
0.101996
0.132556
0.173238
0.226828
0.296081
0.381478
0.480005
0.58859
0.718013
0.912039
1.21885
1.61463
1.88792
1.88934
1.65603
1.50779
1.50635
1.52373
1.36187
0.859791
0.411893
0.261308
0.202103
0.170779
0.142783
0.124201
0.11104
0.0983209
0.0865103
0.0756292
0.0655184
0.0561741
0.0475834
0.0397298
0.0326125
0.0261904
0.0203967
0.0151368
0.0102429
0.00545484
0.000375
0.000375
0.000375
0.000375
)
;
    }
    frontAndBack
    {
        type            empty;
    }
}


// ************************************************************************* //
