/*--------------------------------*- C++ -*----------------------------------*\
  =========                 |
  \\      /  F ield         | OpenFOAM: The Open Source CFD Toolbox
   \\    /   O peration     | Website:  https://openfoam.org
    \\  /    A nd           | Version:  11
     \\/     M anipulation  |
\*---------------------------------------------------------------------------*/
FoamFile
{
    format      ascii;
    class       surfaceVectorField;
    location    "1.8";
    object      Uf;
}
// * * * * * * * * * * * * * * * * * * * * * * * * * * * * * * * * * * * * * //

dimensions      [0 1 -1 0 0 0 0];

internalField   nonuniform List<vector> 
5640
(
(-0.0272606 -0.064041 8.00552e-19)
(-0.0289854 -0.0603198 -6.04822e-19)
(-0.0479258 0.00152637 -4.20504e-19)
(-0.034715 -0.0218314 6.4068e-20)
(-0.0971813 0.135904 -8.91154e-19)
(-0.0628079 0.0961741 -5.85232e-19)
(-0.117342 0.29853 -3.38851e-19)
(-0.122122 0.270672 3.22691e-19)
(-0.138637 0.618845 3.98962e-19)
(-0.105053 0.42573 -3.53066e-20)
(-0.153003 0.90348 2.72946e-19)
(0.0386206 1.22997 1.97336e-19)
(-0.0314251 -0.0274671 -1.37963e-18)
(-0.0335518 -0.0498441 -1.36146e-18)
(-0.0442931 0.0724538 -7.4539e-20)
(-0.0324928 0.0313205 9.71155e-19)
(-0.0726298 0.212129 5.8495e-19)
(-0.0466805 0.163818 -1.46039e-19)
(-0.0899675 0.389435 6.21395e-19)
(-0.0796675 0.324984 1.4993e-19)
(-0.0459393 0.6148 -1.56633e-19)
(-0.0475334 0.500084 -1.2559e-19)
(0.0208055 0.783561 1.0373e-19)
(0.153264 0.963315 1.39824e-19)
(-0.0309919 0.000513841 8.54755e-19)
(-0.0352156 -0.0371027 -2.03915e-20)
(-0.0331574 0.120306 9.45686e-19)
(-0.0255115 0.0726175 9.0282e-19)
(-0.04425 0.261133 -5.96151e-19)
(-0.0262694 0.20852 6.09264e-19)
(-0.0390181 0.430045 -5.80824e-19)
(-0.036899 0.357437 -1.35092e-19)
(0.0306649 0.621752 5.64422e-20)
(0.00678591 0.523792 5.51208e-20)
(0.10889 0.723954 6.50843e-20)
(0.216257 0.841381 0)
(-0.0283983 0.0243411 -2.46351e-20)
(-0.036992 -0.0199365 -4.20887e-20)
(-0.0191545 0.15656 5.79944e-19)
(-0.0161694 0.105546 -8.32302e-19)
(-0.0148552 0.293362 1.09547e-18)
(-0.00534721 0.239534 7.91818e-20)
(0.00727835 0.44609 4.95414e-19)
(0.00201987 0.375551 3.34962e-20)
(0.0873364 0.607132 6.35241e-20)
(0.0551297 0.522467 0)
(0.163863 0.673063 6.50843e-20)
(0.251423 0.76022 3.01456e-19)
(-0.0241486 0.0493669 -8.05595e-19)
(-0.0380979 -0.00116096 1.33564e-18)
(-0.00400132 0.183437 -1.37408e-18)
(-0.00580054 0.130197 -7.84233e-19)
(0.0131959 0.313072 -9.83653e-19)
(0.0150553 0.259876 -5.64746e-19)
(0.0479498 0.447475 -4.62168e-19)
(0.036474 0.382423 -4.49563e-19)
(0.131529 0.579323 0)
(0.0964156 0.507124 -3.32729e-19)
(0.202993 0.621484 0)
(0.276052 0.690095 -4.79384e-19)
(-0.0187081 0.068309 1.4793e-18)
(-0.0358758 0.013594 -1.01671e-19)
(0.011376 0.201698 1.57757e-20)
(0.0054974 0.147341 1.35791e-19)
(0.0389768 0.322573 -3.45468e-20)
(0.0347141 0.271405 -6.54153e-20)
(0.0828526 0.438582 -3.234e-19)
(0.0667678 0.38032 3.97666e-19)
(0.166735 0.544171 -3.40705e-19)
(0.130998 0.483342 -3.30969e-19)
(0.232535 0.569147 2.00218e-19)
(0.294826 0.624376 1.83718e-19)
(-0.0112312 0.0815887 -1.46136e-18)
(-0.030652 0.0241091 -1.37326e-18)
(0.0268168 0.212429 6.21444e-20)
(0.0176211 0.158037 -6.51422e-19)
(0.0624824 0.323921 3.51153e-19)
(0.0535895 0.275792 -3.19974e-20)
(0.112674 0.422416 4.1086e-19)
(0.0933483 0.371305 1.08579e-20)
(0.195139 0.505156 1.97573e-19)
(0.159785 0.454369 3.88975e-19)
(0.255468 0.517155 -6.20735e-20)
(0.309717 0.56209 1.37399e-20)
(-0.00197623 0.0900464 -6.05388e-19)
(-0.0230294 0.0306917 1.40021e-18)
(0.0422228 0.217008 -7.7241e-19)
(0.0302792 0.163506 6.60212e-21)
(0.0839118 0.319 -3.73959e-19)
(0.0716018 0.274599 -8.94411e-20)
(0.138138 0.401247 -2.16487e-20)
(0.116645 0.357201 -3.39272e-19)
(0.218236 0.464343 1.40858e-19)
(0.183707 0.422327 3.87091e-19)
(0.273587 0.466287 -2.62304e-19)
(0.321813 0.50306 -8.74306e-20)
(0.00848164 0.094357 2.09395e-18)
(-0.0137434 0.0338355 -1.90499e-20)
(0.0573787 0.216864 6.93272e-19)
(0.0430675 0.164953 7.47416e-19)
(0.103388 0.309447 -4.68191e-20)
(0.088584 0.269219 -8.94411e-20)
(0.159875 0.376791 4.91018e-20)
(0.137007 0.339533 4.77627e-20)
(0.237117 0.422982 0)
(0.203574 0.38865 -3.01192e-19)
(0.288064 0.41694 -6.1087e-20)
(0.33182 0.447049 2.68312e-19)
(0.0194866 0.0953553 -1.41078e-18)
(-0.00368521 0.0341846 -1.33383e-18)
(0.0719672 0.213209 0)
(0.0555367 0.163392 6.60346e-19)
(0.120947 0.296619 0)
(0.104334 0.260802 0)
(0.178396 0.35033 -2.92747e-19)
(0.154706 0.319514 0)
(0.252597 0.381848 -3.68035e-19)
(0.220052 0.354314 -1.17574e-21)
(0.299731 0.3693 -1.22383e-19)
(0.340107 0.393848 3.47979e-20)
(0.0303574 0.0937964 6.22249e-19)
(0.00626915 0.0323338 -2.09536e-20)
(0.0856547 0.207004 6.88446e-19)
(0.0672404 0.159591 2.19247e-20)
(0.136596 0.28157 0)
(0.118667 0.250235 0)
(0.194113 0.322792 2.9163e-19)
(0.169971 0.298058 0)
(0.265304 0.341395 2.47409e-19)
(0.233677 0.319965 3.00043e-19)
(0.309168 0.323356 3.45763e-22)
(0.347072 0.343093 -3.04047e-19)
(0.0404735 0.0902626 -6.23893e-19)
(0.0153669 0.0287496 5.69089e-23)
(0.0981342 0.198956 -6.65508e-19)
(0.0777773 0.154071 1.86987e-20)
(0.150349 0.265079 0)
(0.131441 0.238164 0)
(0.20736 0.294839 0)
(0.183021 0.275835 -3.69635e-19)
(0.275717 0.301861 6.01644e-20)
(0.24489 0.286022 0)
(0.316795 0.279005 6.16421e-20)
(0.352974 0.294441 3.08924e-19)
(0.0493476 0.0851363 6.41359e-19)
(0.0230101 0.0237647 2.10105e-20)
(0.109159 0.189536 6.85002e-19)
(0.086809 0.147141 6.55072e-19)
(0.162253 0.247695 -3.57147e-19)
(0.14258 0.22502 0)
(0.218453 0.26691 -3.79998e-19)
(0.194084 0.253313 5.62077e-21)
(0.284218 0.263359 0)
(0.254076 0.252766 3.05428e-19)
(0.322927 0.236121 2.58805e-19)
(0.357989 0.247565 -2.41694e-19)
(0.0565312 0.0786847 -1.86222e-21)
(0.0287527 0.0176265 -6.50874e-19)
(0.118546 0.179018 -2.06033e-21)
(0.094031 0.138927 -1.07718e-18)
(0.1724 0.229787 3.62602e-19)
(0.152068 0.211065 3.0907e-20)
(0.227692 0.239323 6.82667e-19)
(0.20342 0.230814 2.30528e-19)
(0.291121 0.225946 5.65351e-19)
(0.261575 0.220404 -2.0049e-19)
(0.327794 0.194587 -3.33978e-21)
(0.362263 0.202145 3.01813e-19)
(0.0617146 0.0710379 -1.70198e-18)
(0.0322513 0.0105302 6.74904e-19)
(0.12615 0.167518 -1.09208e-18)
(0.0991413 0.129426 -3.73707e-19)
(0.180926 0.211563 -1.07911e-19)
(0.159948 0.196413 3.0907e-20)
(0.235382 0.212295 -6.40702e-19)
(0.211329 0.208563 -1.20745e-19)
(0.296701 0.189675 -7.73808e-19)
(0.267713 0.18913 -3.67103e-19)
(0.33156 0.154326 -2.6208e-19)
(0.36591 0.15789 -1.66112e-19)
(0.0645858 0.062276 2.06383e-18)
(0.0332139 0.00266443 6.18666e-19)
(0.131847 0.155023 7.31422e-19)
(0.101808 0.118504 3.56021e-19)
(0.188009 0.193141 2.32183e-20)
(0.166285 0.181047 -1.63096e-20)
(0.241841 0.186011 1.59498e-19)
(0.218144 0.186717 2.4185e-19)
(0.301196 0.154609 1.42082e-19)
(0.272828 0.159162 1.38756e-19)
(0.334338 0.115336 0)
(0.369002 0.114523 -1.40893e-19)
(0.0648413 0.0524686 -1.0736e-18)
(0.0313473 -0.00576629 -7.02149e-19)
(0.135495 0.1414 -3.75909e-19)
(0.101656 0.105903 -5.31064e-19)
(0.193855 0.174549 1.93826e-19)
(0.171175 0.164814 -3.34539e-20)
(0.247447 0.160665 2.23967e-19)
(0.224265 0.16537 2.31472e-19)
(0.304874 0.120899 0)
(0.277309 0.13078 0)
(0.336226 0.0777427 0)
(0.371582 0.0718076 1.71192e-20)
(0.0621551 0.0417768 -1.69173e-19)
(0.0263895 -0.0145397 7.95975e-21)
(0.136944 0.126367 -2.09784e-19)
(0.0982016 0.0912353 9.28036e-21)
(0.198724 0.155687 -4.32648e-21)
(0.174727 0.147404 -1.71442e-20)
(0.25264 0.136438 1.39949e-20)
(0.230178 0.144555 1.36132e-20)
(0.308061 0.0888189 0)
(0.281616 0.104354 0)
(0.337308 0.0418625 0)
(0.373705 0.0295641 0)
(0.0559443 0.0290442 1.86417e-19)
(0.0181973 -0.0233746 1.78461e-22)
(0.13599 0.109466 2.03134e-19)
(0.0908879 0.0739394 1.9646e-19)
(0.202915 0.136326 0)
(0.17701 0.12832 2.43276e-21)
(0.257969 0.113528 0)
(0.236494 0.124225 -5.65478e-21)
(0.311169 0.0588183 0)
(0.286359 0.0803722 -4.19929e-20)
(0.337636 0.00831468 3.63237e-20)
(0.375409 -0.0123116 0)
(0.0462095 0.0148926 -1.04179e-21)
(0.00861649 -0.0318543 -2.48362e-21)
(0.132444 0.0900854 4.01534e-21)
(0.0795968 0.0533649 1.61728e-21)
(0.206744 0.116088 -3.00181e-21)
(0.177935 0.106831 -1.77488e-19)
(0.264182 0.0921677 -4.66699e-20)
(0.244027 0.104186 1.33525e-19)
(0.314837 0.0317493 -7.39153e-21)
(0.292486 0.0594445 9.55985e-21)
(0.337191 -0.0217674 -8.90466e-20)
(0.376658 -0.0537029 4.236e-20)
(0.0348938 0.000567704 0)
(-6.41192e-05 -0.039377 0)
(0.126405 0.0677675 -1.72264e-19)
(0.0649817 0.0293275 2.94301e-20)
(0.210441 0.0945393 -5.12143e-20)
(0.176879 0.0819706 -1.90297e-20)
(0.272387 0.0726733 1.93175e-19)
(0.253905 0.0839463 -3.27117e-21)
(0.320375 0.0089948 -6.92383e-20)
(0.301643 0.0422147 5.1538e-20)
(0.334584 -0.0463027 -3.24097e-20)
(0.377085 -0.0943156 -2.16866e-19)
(0.0227572 -0.0143132 2.77322e-20)
(-0.00846213 -0.0453944 6.72839e-19)
(0.117851 0.0425942 1.86551e-19)
(0.0467141 0.00185507 5.3514e-19)
(0.213628 0.0713084 2.86474e-20)
(0.171733 0.0523503 1.60607e-19)
(0.284015 0.0554983 -1.46176e-19)
(0.267371 0.0623764 -1.80258e-19)
(0.330016 -0.00688115 8.85144e-20)
(0.31639 0.0291455 -3.09841e-20)
(0.322554 -0.0618575 1.42976e-19)
(0.374481 -0.134306 1.79309e-19)
(0.00916978 -0.0309414 1.18819e-18)
(-0.0158117 -0.0489469 -8.41105e-19)
(0.104326 0.01374 5.2723e-19)
(0.023333 -0.0288196 5.69165e-19)
(0.214294 0.0449 -3.67824e-20)
(0.151005 0.0135757 -3.88983e-19)
(0.299215 0.0393971 -6.91995e-20)
(0.283223 0.0370317 -3.22888e-19)
(0.345518 -0.0131572 -1.21612e-20)
(0.333408 0.0184002 -9.8567e-20)
(0.285155 -0.0636443 -1.40395e-19)
(0.362654 -0.177048 1.95834e-19)
(-0.00865663 -0.0485344 -1.53749e-18)
(0.075957 -0.0285703 -3.00641e-19)
(0.203616 -0.00334691 -6.84285e-19)
(0.30677 0.00511429 -3.74272e-19)
(0.360002 -0.0336845 -2.57266e-19)
(0.348253 -0.241246 -3.66761e-19)
(0.705548 1.02126 -2.17104e-20)
(0.497468 1.11939 2.26139e-20)
(0.665603 1.17391 1.01565e-19)
(0.920341 0.860528 -4.2017e-20)
(0.80785 0.902954 -4.09824e-20)
(0.915035 0.921937 1.82964e-20)
(1.03097 0.736526 -2.9935e-20)
(0.954361 0.776113 -1.97205e-20)
(1.03917 0.789762 -3.69592e-21)
(1.09203 0.636013 6.9338e-20)
(1.03624 0.672143 -1.13823e-20)
(1.10761 0.683426 2.46415e-20)
(1.12679 0.55194 4.8854e-20)
(1.08399 0.582237 3.3249e-21)
(1.14631 0.592002 5.75928e-20)
(1.14714 0.481403 -3.6055e-20)
(1.11286 0.506773 -3.52179e-20)
(1.168 0.515231 -2.28584e-20)
(1.15912 0.422302 -3.69672e-20)
(1.13086 0.443731 -7.86456e-22)
(1.17989 0.450726 3.4783e-21)
(1.16598 0.372694 -1.06045e-20)
(1.14223 0.39099 -4.79276e-20)
(1.186 0.396484 -6.22694e-20)
(1.16943 0.330786 8.58189e-20)
(1.14925 0.346604 9.40766e-20)
(1.1885 0.350736 -2.31897e-20)
(1.17039 0.295035 8.25026e-21)
(1.15316 0.308886 -6.15968e-20)
(1.18852 0.31188 5.90405e-20)
(1.16933 0.264185 -4.10797e-21)
(1.15464 0.27645 -4.87321e-20)
(1.18663 0.278557 -2.89707e-20)
(1.16653 0.237238 3.58191e-21)
(1.15408 0.248199 4.90506e-20)
(1.18313 0.249664 4.74043e-20)
(1.16216 0.213408 -4.64558e-20)
(1.15172 0.223277 5.75571e-20)
(1.17817 0.224326 -8.74831e-20)
(1.15628 0.192069 8.38084e-20)
(1.1477 0.201009 -4.9743e-20)
(1.17183 0.201847 2.05324e-20)
(1.14894 0.172711 8.52298e-20)
(1.14211 0.180851 4.15955e-20)
(1.16415 0.181666 8.45582e-20)
(1.1401 0.154913 -7.50443e-20)
(1.13496 0.162354 4.46006e-20)
(1.15509 0.163317 0)
(1.12969 0.138317 -7.63205e-20)
(1.12622 0.145148 -1.18243e-19)
(1.14461 0.146414 -7.56176e-20)
(1.11761 0.122619 8.63386e-20)
(1.11582 0.128933 -7.82213e-23)
(1.13257 0.130639 -7.82213e-23)
(1.10368 0.107559 5.26227e-20)
(1.10362 0.113442 1.63579e-19)
(1.11884 0.115703 5.48831e-20)
(1.08769 0.092916 -3.57663e-20)
(1.08955 0.0982758 -7.42001e-20)
(1.10324 0.101187 -9.83568e-20)
(1.0693 0.078497 6.77683e-20)
(1.07353 0.082874 3.72846e-20)
(1.08563 0.0864691 6.13392e-20)
(1.048 0.0641311 2.11338e-20)
(1.0548 0.0681471 6.81895e-20)
(1.0652 0.0723132 6.81895e-20)
(1.02445 0.0502627 -1.64464e-20)
(1.03025 0.0604901 -1.04675e-19)
(1.03898 0.0650909 -1.76518e-20)
(1.0011 0.0639619 5.31381e-20)
(1.00692 0.0704544 -4.20701e-21)
(0.632551 0.92342 5.46591e-20)
(0.457155 0.959885 2.26139e-20)
(0.840529 0.819232 -1.91312e-20)
(0.73551 0.850719 -1.87388e-20)
(0.957559 0.713722 0)
(0.882139 0.744069 1.20112e-19)
(1.0269 0.618943 -7.97052e-20)
(0.970104 0.647157 3.14012e-20)
(1.06913 0.537979 -8.22923e-20)
(1.0249 0.562377 -8.10608e-20)
(1.09596 0.469984 0)
(1.06032 0.490709 0)
(1.11354 0.413138 -1.01844e-20)
(1.08407 0.430768 -1.39887e-19)
(1.12521 0.365464 5.57049e-20)
(1.10041 0.380596 1.07514e-19)
(1.13279 0.325145 -5.21457e-20)
(1.11169 0.338292 -1.17523e-20)
(1.13728 0.290645 -1.19076e-19)
(1.11926 0.302213 -1.20996e-19)
(1.1393 0.260737 3.62631e-21)
(1.1239 0.271032 -5.69567e-20)
(1.13921 0.234459 1.02979e-19)
(1.12611 0.243715 3.22987e-22)
(1.13724 0.21106 5.52427e-20)
(1.1262 0.219456 5.11456e-20)
(1.13353 0.189943 -9.28631e-20)
(1.12439 0.197618 -3.42121e-22)
(1.12815 0.170624 7.79429e-22)
(1.12081 0.177691 -4.31244e-20)
(1.12111 0.152702 2.63603e-21)
(1.1155 0.159253 1.58618e-22)
(1.11239 0.135844 -4.29349e-20)
(1.10847 0.141959 8.83156e-20)
(1.1019 0.119769 7.57076e-20)
(1.09968 0.125534 -8.53112e-20)
(1.08953 0.104249 3.84562e-20)
(1.08907 0.10974 7.62373e-20)
(1.07513 0.0890991 -1.69104e-21)
(1.0766 0.0942079 -3.84896e-20)
(1.05847 0.0741707 3.75148e-20)
(1.06231 0.0784398 -4.87054e-23)
(1.03923 0.0593519 -3.77343e-20)
(1.04544 0.0634336 0)
(1.01853 0.0453123 -3.60355e-20)
(1.02273 0.0554128 -9.10172e-23)
(0.996401 0.0572809 -3.4308e-20)
(0.57793 0.85618 0)
(0.432656 0.860789 3.07006e-19)
(0.775279 0.772647 1.17597e-19)
(0.67676 0.789284 -2.70713e-19)
(0.892887 0.678397 1.5176e-19)
(0.819798 0.699304 -7.17776e-20)
(0.967124 0.591339 3.19263e-20)
(0.910927 0.612045 6.80838e-20)
(1.01535 0.515944 0)
(0.970902 0.5345 7.09205e-20)
(1.04788 0.452267 -1.3794e-19)
(1.01173 0.468334 1.11582e-19)
(1.07054 0.398865 -2.48155e-20)
(1.04048 0.412691 -1.45889e-19)
(1.08661 0.353929 4.19558e-20)
(1.06123 0.365899 6.9785e-20)
(1.09797 0.315755 -7.95712e-20)
(1.07634 0.326237 -9.3165e-22)
(1.10574 0.282912 -5.97848e-20)
(1.08721 0.292208 0)
(1.11061 0.254262 -6.1008e-20)
(1.09474 0.262606 -1.31651e-19)
(1.11304 0.228918 -5.21253e-20)
(1.0995 0.236492 -2.75827e-21)
(1.11332 0.206186 -4.00873e-21)
(1.10187 0.213133 -5.34028e-20)
(1.11166 0.185512 4.99137e-20)
(1.10213 0.191947 -6.21979e-21)
(1.10816 0.166447 -4.42272e-20)
(1.10044 0.172466 0)
(1.10287 0.148621 8.51642e-20)
(1.09689 0.154301 -4.45813e-20)
(1.0958 0.131729 4.74429e-20)
(1.09154 0.137139 1.31077e-19)
(1.08692 0.115521 -8.59039e-20)
(1.08436 0.120734 5.83998e-21)
(1.07617 0.0998 0)
(1.07534 0.104879 -1.76526e-19)
(1.06345 0.0844203 -3.72255e-20)
(1.06454 0.0892451 4.76199e-22)
(1.04863 0.0692725 -3.76972e-20)
(1.05205 0.0733985 4.58634e-20)
(1.03154 0.0542986 3.77633e-20)
(1.03713 0.0583853 -4.22e-20)
(1.01359 0.0403745 2.01689e-21)
(1.01637 0.0501168 2.03741e-19)
(0.992798 0.0506249 -2.34555e-19)
(0.538964 0.781645 7.27358e-20)
(0.418483 0.773944 -2.74386e-19)
(0.720619 0.715502 -4.63518e-19)
(0.631536 0.722015 2.29031e-19)
(0.836745 0.633757 -1.60006e-19)
(0.767746 0.646706 -2.39735e-19)
(0.913906 0.556031 1.07031e-19)
(0.859575 0.570095 3.66827e-20)
(0.966634 0.48768 1.81482e-19)
(0.922896 0.500824 7.55044e-21)
(1.00382 0.429456 1.07668e-19)
(0.967858 0.441098 1.08784e-19)
(1.03079 0.380297 -5.35638e-20)
(1.00069 0.390464 -1.14709e-19)
(1.05068 0.338661 2.80118e-20)
(1.02515 0.347571 -1.50339e-21)
(1.06538 0.303047 7.89064e-20)
(1.04356 0.31094 1.67665e-19)
(1.07607 0.272187 -7.0493e-20)
(1.05734 0.279269 0)
(1.08353 0.245068 -7.46664e-20)
(1.06744 0.251507 1.47904e-19)
(1.08826 0.220899 -3.55986e-21)
(1.07449 0.226829 6.12767e-20)
(1.09064 0.199056 -5.60168e-20)
(1.07895 0.204586 -6.43441e-20)
(1.09089 0.179039 -5.61854e-20)
(1.08112 0.18426 -5.57206e-20)
(1.08917 0.160441 0)
(1.0812 0.165428 0)
(1.08557 0.142926 0)
(1.07933 0.147743 0)
(1.08012 0.126221 9.04902e-20)
(1.07559 0.130922 0)
(1.07285 0.110109 -8.31648e-20)
(1.06999 0.114755 -6.03696e-21)
(1.06374 0.0944316 -1.77117e-19)
(1.06258 0.0990676 -3.37243e-20)
(1.05275 0.07908 8.66012e-20)
(1.05346 0.0835782 4.76199e-22)
(1.03983 0.0639834 4.19044e-20)
(1.04281 0.0679215 8.33291e-20)
(1.02491 0.0491322 1.22313e-19)
(1.02986 0.0531589 -1.77863e-19)
(1.00957 0.0355756 1.54382e-19)
(1.01112 0.0447742 5.12269e-19)
(0.990222 0.044145 -4.51856e-19)
(0.512736 0.707714 -1.03919e-19)
(0.410365 0.693656 -3.51538e-19)
(0.677214 0.653788 4.61105e-19)
(0.597049 0.653351 8.24317e-20)
(0.789512 0.583839 -4.95004e-20)
(0.725176 0.590318 -4.85968e-20)
(0.86777 0.5157 -6.23474e-20)
(0.815948 0.524055 0)
(0.923502 0.454985 -6.67654e-20)
(0.881129 0.463276 -6.34077e-20)
(0.964236 0.402744 -1.10315e-19)
(0.929018 0.410314 1.97251e-19)
(0.99468 0.358255 -6.3887e-20)
(0.964991 0.365003 6.57653e-20)
(1.01776 0.320259 1.3634e-19)
(0.992464 0.326278 -5.91665e-20)
(1.03531 0.287485 9.0624e-20)
(1.01361 0.292911 -9.91992e-20)
(1.04855 0.25885 2.17006e-19)
(1.02987 0.263812 8.64274e-20)
(1.05829 0.233483 2.85008e-19)
(1.0422 0.238089 1.43985e-19)
(1.06511 0.210695 1.82217e-21)
(1.05129 0.215037 6.41728e-20)
(1.06938 0.189942 -6.41124e-20)
(1.05762 0.194097 -6.35544e-20)
(1.07141 0.170779 0)
(1.06153 0.174815 0)
(1.07136 0.152844 0)
(1.06326 0.15682 5.68651e-20)
(1.06936 0.135841 0)
(1.06297 0.139803 -1.1272e-19)
(1.06549 0.11953 -9.64834e-20)
(1.06076 0.12352 5.49953e-20)
(1.05979 0.103732 4.35973e-20)
(1.0567 0.107793 -9.71881e-20)
(1.05231 0.0883269 1.43754e-19)
(1.05086 0.0924889 1.45382e-19)
(1.04307 0.0732463 0)
(1.04341 0.0773761 4.95928e-20)
(1.03205 0.0584549 -1.34697e-19)
(1.03458 0.0621617 -1.88497e-19)
(1.01929 0.0439836 1.68467e-19)
(1.02359 0.0478894 4.86264e-20)
(1.00637 0.0310102 2.68036e-19)
(1.0069 0.0395185 3.46517e-19)
(0.988582 0.03796 -3.92851e-19)
(0.494395 0.635919 -1.8439e-19)
(0.40616 0.618888 -5.12161e-20)
(0.643157 0.590885 -4.20808e-19)
(0.570985 0.58574 -1.66841e-19)
(0.750515 0.531338 0)
(0.690918 0.532675 0)
(0.828497 0.47241 0)
(0.779554 0.475921 -1.86692e-19)
(0.886015 0.4193 1.97009e-19)
(0.845425 0.423327 7.70565e-20)
(0.929283 0.373158 3.75338e-19)
(0.895212 0.377064 -1.4936e-19)
(0.962402 0.333495 7.21334e-20)
(0.933484 0.337113 5.54214e-20)
(0.988042 0.299301 -2.94231e-19)
(0.963286 0.302639 -1.11207e-19)
(1.00796 0.269532 -1.05502e-19)
(0.98665 0.272649 -9.25324e-20)
(1.02337 0.243289 1.26948e-20)
(1.00496 0.24625 8.64274e-20)
(1.03509 0.219841 -7.6161e-20)
(1.0192 0.222707 8.21454e-21)
(1.04373 0.198606 0)
(1.03005 0.20143 1.49182e-19)
(1.04972 0.179113 0)
(1.03804 0.181947 -6.99324e-20)
(1.05336 0.160978 5.63908e-20)
(1.04351 0.16387 0)
(1.05486 0.143886 -5.44457e-20)
(1.04674 0.146876 1.1735e-19)
(1.05437 0.127578 -5.89964e-20)
(1.04791 0.130698 -1.1272e-19)
(1.052 0.111853 5.53941e-20)
(1.04715 0.11513 5.76197e-20)
(1.04784 0.0965707 2.46844e-21)
(1.04456 0.100032 0)
(1.04196 0.0816534 5.17643e-20)
(1.04025 0.0853119 5.62363e-20)
(1.03443 0.0670727 -1.37378e-19)
(1.03442 0.0707946 -1.02865e-19)
(1.02529 0.0528235 3.43426e-21)
(1.02736 0.0562573 -3.87277e-19)
(1.01461 0.0389644 1.85257e-19)
(1.01825 0.0426904 1.80825e-19)
(1.00391 0.0267489 -1.38184e-19)
(1.00361 0.0344528 4.6572e-20)
(0.987763 0.0321614 3.96254e-20)
(0.481549 0.567176 -4.0201e-20)
(0.404444 0.549252 -2.68725e-21)
(0.616729 0.528668 2.48803e-19)
(0.551527 0.520385 2.437e-19)
(0.718813 0.478047 -1.8322e-19)
(0.663764 0.475328 0)
(0.795629 0.427589 -1.14046e-19)
(0.74969 0.427055 -8.36864e-22)
(0.853969 0.38174 -2.65608e-19)
(0.815411 0.382079 7.70565e-20)
(0.898911 0.341554 -4.7198e-19)
(0.866265 0.342214 -2.07296e-19)
(0.933988 0.306682 -1.25732e-19)
(0.906109 0.307477 -1.19441e-19)
(0.961611 0.276322 9.03934e-20)
(0.937639 0.277209 2.19419e-19)
(0.983437 0.249634 9.74343e-20)
(0.962728 0.250617 -2.1038e-19)
(1.00063 0.225886 8.27629e-20)
(0.982701 0.226981 1.86827e-19)
(1.01404 0.204478 2.32174e-19)
(0.998517 0.205708 -8.62222e-20)
(1.02427 0.184926 8.13565e-20)
(1.01088 0.186316 6.90377e-20)
(1.03177 0.166837 -7.05464e-20)
(1.0203 0.168414 3.59784e-21)
(1.03686 0.149881 6.00566e-20)
(1.02716 0.151675 -2.08466e-19)
(1.03978 0.133789 6.10427e-20)
(1.03174 0.135824 -6.8617e-20)
(1.04069 0.118341 2.5256e-21)
(1.03425 0.120637 1.24567e-19)
(1.03974 0.103376 2.56335e-21)
(1.03484 0.105943 -2.34531e-19)
(1.03704 0.0887964 5.32939e-20)
(1.03363 0.0916463 1.15043e-19)
(1.0327 0.0745691 -9.77013e-20)
(1.03077 0.0776987 -3.9703e-22)
(1.02682 0.0607012 -3.51025e-19)
(1.0265 0.0639804 9.86485e-21)
(1.01947 0.0472083 -1.94059e-19)
(1.0211 0.0503311 -1.98779e-19)
(1.01076 0.0341601 7.22756e-21)
(1.01376 0.0376513 -3.33544e-21)
(1.00208 0.0228347 8.20782e-20)
(1.00115 0.0296548 -2.30006e-21)
(0.98764 0.0268168 1.31831e-19)
(0.472644 0.501969 2.73632e-19)
(0.404321 0.484304 5.89013e-19)
(0.596477 0.468153 0)
(0.537212 0.457765 0)
(0.693445 0.425093 1.81949e-19)
(0.642593 0.419176 -5.50464e-20)
(0.768573 0.38225 1.88497e-19)
(0.72561 0.378352 3.32134e-19)
(0.827025 0.343148 1.39763e-19)
(0.79062 0.340321 1.6946e-19)
(0.872945 0.308621 1.43895e-19)
(0.841904 0.306433 -8.91013e-20)
(0.909371 0.278387 2.2136e-19)
(0.882724 0.276663 -5.17108e-21)
(0.938466 0.251805 -7.61336e-20)
(0.915465 0.250474 1.02757e-19)
(0.961775 0.228205 -1.25501e-19)
(0.941845 0.227234 -2.02036e-19)
(0.98042 0.207001 2.06952e-20)
(0.963119 0.206374 -9.67543e-21)
(0.99523 0.187713 -2.50935e-19)
(0.980216 0.187422 -3.46933e-19)
(1.00681 0.169947 -8.09647e-21)
(0.993829 0.169992 -8.10875e-20)
(1.01563 0.153375 -1.32428e-19)
(1.00448 0.153766 1.50271e-19)
(1.022 0.137723 -3.38306e-19)
(1.01255 0.138473 3.34354e-21)
(1.02619 0.122766 -6.7196e-21)
(1.01832 0.123886 -2.6547e-19)
(1.02839 0.108324 -1.09835e-19)
(1.02204 0.109819 3.18808e-19)
(1.02875 0.0942776 -1.24797e-19)
(1.02386 0.0961434 -4.24618e-19)
(1.02742 0.0805748 6.21544e-20)
(1.02393 0.082806 2.35266e-19)
(1.02453 0.0672239 1.07124e-19)
(1.02242 0.0698036 -1.69755e-19)
(1.02022 0.0542606 1.63449e-19)
(1.0196 0.0570675 1.07424e-19)
(1.01455 0.0417072 0)
(1.01573 0.0444849 1.62248e-19)
(1.00764 0.0296296 -4.86728e-20)
(1.01004 0.0328352 -1.57701e-19)
(1.00076 0.019286 -9.57544e-20)
(0.999401 0.0251786 -1.01246e-19)
(0.988079 0.0219731 1.66964e-19)
(0.466854 0.440111 3.29501e-19)
(0.405187 0.423406 4.45703e-19)
(0.581253 0.409813 -5.38936e-20)
(0.526995 0.398026 -4.11762e-19)
(0.673517 0.373141 8.76591e-20)
(0.62645 0.364676 5.75495e-21)
(0.746716 0.337067 3.15992e-19)
(0.70661 0.330358 1.46737e-19)
(0.804789 0.304141 -5.54254e-20)
(0.770571 0.298597 -1.83453e-19)
(0.851147 0.274905 -2.39336e-19)
(0.821815 0.270226 -1.53919e-19)
(0.888418 0.249089 -1.25112e-19)
(0.863136 0.245129 1.99966e-19)
(0.918546 0.226171 -1.94459e-20)
(0.896655 0.222848 -1.21483e-19)
(0.942965 0.20562 -8.83479e-20)
(0.92395 0.202877 2.15772e-19)
(0.962744 0.186974 -3.73729e-19)
(0.946201 0.184769 -9.86497e-20)
(0.978687 0.169852 -1.79709e-19)
(0.964303 0.168157 -8.97855e-20)
(0.991397 0.153941 7.51248e-20)
(0.978931 0.152737 -3.35605e-21)
(1.00133 0.138976 2.87469e-19)
(0.990599 0.138256 1.5634e-19)
(1.00882 0.124732 7.85817e-20)
(0.999695 0.124496 2.11855e-19)
(1.01414 0.111024 5.53246e-20)
(1.00652 0.111271 -6.52032e-20)
(1.01749 0.0977164 9.80575e-21)
(1.0113 0.0984369 6.02941e-20)
(1.01905 0.0847322 -6.95582e-20)
(1.01422 0.0859072 -1.22032e-19)
(1.01898 0.0720639 6.10549e-21)
(1.01546 0.0736723 5.92181e-20)
(1.01744 0.0597563 -1.71214e-19)
(1.01519 0.06177 -5.58053e-20)
(1.01456 0.0478609 1.05803e-19)
(1.01369 0.0501718 1.20784e-19)
(1.01043 0.0363932 -8.21947e-22)
(1.01121 0.0387958 2.17595e-19)
(1.00516 0.0254049 -2.1061e-19)
(1.00699 0.0282789 -1.55987e-19)
(0.99985 0.0161014 1.5969e-19)
(0.998247 0.021058 -5.37165e-20)
(0.988952 0.0176574 2.62599e-19)
(0.463251 0.38153 -2.72983e-19)
(0.406718 0.365953 -1.56779e-19)
(0.57014 0.353788 -3.60673e-19)
(0.520041 0.340984 -7.03235e-20)
(0.658269 0.32253 6.1932e-20)
(0.61456 0.311978 -9.99755e-22)
(0.72949 0.292462 -3.4678e-19)
(0.692077 0.283376 0)
(0.786864 0.265155 -2.82252e-19)
(0.754813 0.257271 -2.62061e-19)
(0.833254 0.240827 2.80223e-19)
(0.805685 0.233972 1.58401e-19)
(0.870964 0.219183 2.07684e-19)
(0.847134 0.213243 2.734e-19)
(0.901754 0.199787 1.09713e-19)
(0.881075 0.194679 6.20499e-20)
(0.926957 0.182216 2.09038e-19)
(0.908961 0.177871 -1.09811e-19)
(0.947585 0.166111 1.85217e-19)
(0.931904 0.16247 2.01484e-19)
(0.964414 0.151177 8.57567e-20)
(0.950756 0.148194 1.79359e-19)
(0.978035 0.137168 7.63526e-20)
(0.966176 0.134809 -2.42812e-21)
(0.988896 0.123876 8.02389e-20)
(0.978667 0.122121 8.14974e-20)
(0.997343 0.111121 7.0495e-20)
(0.988616 0.109959 0)
(1.00364 0.0987601 -6.12746e-20)
(0.996321 0.0981773 -2.85417e-22)
(1.00801 0.0866985 -7.01198e-20)
(1.00202 0.0866724 4.43878e-21)
(1.01064 0.074904 5.29458e-21)
(1.00593 0.0754007 1.99999e-19)
(1.01171 0.0634099 -2.05988e-21)
(1.0082 0.0643945 -4.47308e-19)
(1.01138 0.0522871 2.35319e-19)
(1.00904 0.0537237 1.84889e-19)
(1.0098 0.0415887 2.32026e-19)
(1.0087 0.0433859 1.16561e-19)
(1.00703 0.0313134 5.73577e-20)
(1.00743 0.0333141 3.4687e-19)
(1.00322 0.0214959 2.59135e-22)
(1.00453 0.023998 -2.22641e-19)
(0.999265 0.0132657 4.74435e-20)
(0.997573 0.0173098 5.2291e-20)
(0.990134 0.0138792 -5.28765e-23)
(0.461413 0.325758 4.51483e-20)
(0.408709 0.311345 5.0794e-21)
(0.562446 0.299968 2.87386e-19)
(0.515778 0.286352 3.40978e-19)
(0.647079 0.273381 -6.29503e-20)
(0.606331 0.261054 -6.18011e-20)
(0.716402 0.248681 8.88971e-20)
(0.681508 0.237543 1.01697e-19)
(0.772884 0.226493 1.72033e-19)
(0.742953 0.216575 2.69027e-19)
(0.819004 0.206709 1.4998e-19)
(0.793221 0.197946 1.60413e-19)
(0.85683 0.188991 1.30495e-19)
(0.83451 0.181299 6.83494e-20)
(0.887972 0.172964 -1.55396e-19)
(0.868579 0.166263 -6.34114e-20)
(0.913674 0.15829 -1.20867e-19)
(0.896779 0.152504 -1.08722e-19)
(0.934895 0.144692 1.95857e-19)
(0.920156 0.13975 -1.90999e-21)
(0.952382 0.131945 9.30116e-20)
(0.939529 0.127788 9.21075e-20)
(0.966708 0.119865 1.92263e-21)
(0.955531 0.116446 1.76331e-19)
(0.978316 0.108293 1.95765e-21)
(0.968656 0.105581 -1.61853e-19)
(0.987548 0.0970908 -7.08069e-20)
(0.979285 0.0950633 7.87181e-20)
(0.994676 0.0861572 6.53965e-20)
(0.987718 0.0847892 -7.14024e-20)
(0.999923 0.0754383 2.73069e-19)
(0.9942 0.0746941 6.8001e-20)
(1.00349 0.0649443 -2.47893e-19)
(0.998938 0.0647767 1.36022e-19)
(1.00556 0.0547418 -2.65203e-19)
(1.00211 0.0551051 -4.53e-19)
(1.0063 0.0449146 6.67842e-20)
(1.00391 0.0457688 2.53298e-19)
(1.00584 0.0355053 2.29879e-19)
(1.00458 0.0367771 -5.93239e-20)
(1.00428 0.0264924 6.50577e-20)
(1.00434 0.0280679 4.12175e-19)
(1.00172 0.017897 -1.72285e-19)
(1.00258 0.0199928 -3.97254e-19)
(0.998926 0.0107553 5.39443e-21)
(0.997274 0.0139366 5.37133e-20)
(0.991512 0.0106316 1.39905e-19)
(0.461019 0.272354 2.92857e-19)
(0.411052 0.259013 -4.05844e-21)
(0.557678 0.248134 0)
(0.513818 0.233773 -3.19351e-19)
(0.639467 0.225685 9.9806e-20)
(0.601326 0.211769 0)
(0.707047 0.205852 2.78956e-19)
(0.674505 0.192898 3.65204e-19)
(0.76253 0.188364 2.59032e-19)
(0.734663 0.176655 -5.26708e-20)
(0.808159 0.172802 8.00637e-20)
(0.784169 0.162355 -8.22413e-20)
(0.84584 0.15878 -1.23794e-19)
(0.825071 0.149534 0)
(0.877072 0.145971 -1.61396e-20)
(0.859022 0.137849 -1.25405e-19)
(0.903024 0.134103 9.0459e-21)
(0.887293 0.127025 -1.44592e-21)
(0.924607 0.122965 -1.0664e-19)
(0.910877 0.11685 1.0715e-19)
(0.942539 0.112392 1.746e-19)
(0.930555 0.107169 1.92744e-19)
(0.957376 0.102251 1.57433e-20)
(0.946943 0.0978639 8.52525e-20)
(0.969553 0.0924277 -8.72829e-20)
(0.960521 0.0888344 -1.64099e-19)
(0.979409 0.0828269 7.93747e-20)
(0.971662 0.0799936 7.7524e-20)
(0.987212 0.073385 -6.99319e-20)
(0.980666 0.0712756 -7.65631e-20)
(0.993192 0.0640893 -6.96217e-20)
(0.987778 0.0626556 -2.15862e-19)
(0.997551 0.0549868 -6.47054e-20)
(0.993205 0.0541707 7.30501e-20)
(1.00047 0.0461668 6.0314e-20)
(0.997128 0.045915 -2.01936e-19)
(1.00212 0.0377125 1.29275e-19)
(0.999728 0.0379844 2.59809e-19)
(1.00263 0.0296491 1.199e-19)
(1.00124 0.030389 6.36626e-20)
(1.00208 0.0219385 -5.26042e-20)
(1.00185 0.0230682 -6.16465e-20)
(1.00059 0.0145937 -1.74021e-19)
(1.00106 0.0162552 -1.14368e-19)
(0.99877 0.00854231 1.87728e-19)
(0.997252 0.0109304 -5.67055e-20)
(0.992982 0.00789238 2.40158e-19)
(0.461875 0.220862 -6.08053e-19)
(0.413703 0.208404 -2.89863e-19)
(0.5555 0.198012 -3.26038e-19)
(0.513931 0.182857 3.7573e-20)
(0.635081 0.17936 2.58607e-19)
(0.599246 0.163941 1.85837e-19)
(0.701105 0.164033 4.05757e-20)
(0.670776 0.149424 5.13539e-20)
(0.755538 0.150912 -3.93315e-19)
(0.729684 0.137602 -2.3115e-19)
(0.800508 0.139299 -1.63343e-19)
(0.778315 0.127357 -1.611e-19)
(0.837832 0.128769 0)
(0.818645 0.118142 7.06253e-20)
(0.868929 0.119038 -1.12189e-19)
(0.852267 0.10965 -1.30612e-19)
(0.894907 0.109885 9.54501e-20)
(0.880394 0.101653 -1.13543e-19)
(0.91664 0.101153 4.05641e-19)
(0.903973 0.093987 1.60328e-19)
(0.934819 0.0927278 1.04517e-19)
(0.923759 0.0865458 4.79485e-20)
(0.949983 0.0845224 -9.21416e-20)
(0.940345 0.0792571 -4.46581e-20)
(0.962557 0.0764643 -1.4032e-21)
(0.9542 0.0720634 -4.23057e-20)
(0.972874 0.0684973 -7.70419e-20)
(0.965689 0.0649169 3.95294e-20)
(0.9812 0.0605967 -2.21387e-19)
(0.975108 0.0577892 -7.65631e-20)
(0.987763 0.052787 -7.54825e-20)
(0.982699 0.0506932 -1.4537e-19)
(0.992765 0.0451442 -6.22092e-20)
(0.988664 0.0436978 3.55627e-20)
(0.996385 0.0377677 -5.8752e-21)
(0.993182 0.0369118 -3.08003e-19)
(0.998782 0.0307306 1.95505e-19)
(0.996429 0.0304256 2.65172e-19)
(1.00008 0.0240408 -1.17114e-19)
(0.99862 0.0242457 -3.24647e-20)
(1.00038 0.0176501 -1.2361e-19)
(0.999913 0.0183154 -1.82354e-19)
(0.999772 0.0115676 2.60406e-21)
(0.999921 0.0127751 8.79711e-20)
(0.998743 0.00659652 -5.98203e-21)
(0.997419 0.00827962 -4.23501e-23)
(0.994445 0.00562241 -1.47382e-23)
(0.463898 0.170817 3.48243e-19)
(0.416674 0.158979 1.67328e-19)
(0.555713 0.149302 5.46557e-19)
(0.516023 0.133208 2.14137e-19)
(0.633681 0.134288 -1.87929e-20)
(0.59992 0.117365 3.5217e-21)
(0.69834 0.123241 -2.15574e-19)
(0.670118 0.107078 -1.05212e-19)
(0.7517 0.114244 0)
(0.727822 0.0994763 -4.79171e-20)
(0.795879 0.106359 6.96421e-20)
(0.775495 0.0930791 0)