/*--------------------------------*- C++ -*----------------------------------*  =========                 |
  \      /  F ield         | OpenFOAM: The Open Source CFD Toolbox
   \    /   O peration     | Website:  https://openfoam.org
    \  /    A nd           | Version:  11
     \/     M anipulation  |
\*---------------------------------------------------------------------------*/
FoamFile
{
    format      ascii;
    class       volScalarField;
    object      U;
}
// * * * * * * * * * * * * * * * * * * * * * * * * * * * * * * * * * * * * * //

dimensions      [0 1 -1 0 0 0 0];

internalField   nonuniform List<scalar> 
2880
( 
0.0773464664560627
0.15393146345464145
0.23546669602205855
0.2772528079735722
0.348722981541126
0.44297550624664617
0.11009659361054387
0.18638742303480904
0.25887179575303604
0.29756886235359487
0.3603348674168344
0.4281560649720481
0.12495584462557076
0.19626965008880012
0.26143140994340114
0.3002773040677581
0.36562557377800897
0.44490944150502026
0.13806361680940013
0.20294943620251796
0.26106983790513505
0.30079769920987864
0.3721831659011562
0.46004728354990815
0.15190388974151675
0.20844647971740385
0.25950227393496095
0.30179749678811907
0.3763950960408427
0.4702391113823604
0.1651170987432912
0.21239953626130384
0.25723958716043444
0.30224053897370534
0.3787308012019354
0.4734210519022301
0.1774820044162679
0.21566498825013009
0.25545154466621905
0.30178691562883
0.37918315737742564
0.47301087909656153
0.18778095598894423
0.2181808161841092
0.25391741018704883
0.3012831534013149
0.37817499371080987
0.470167398766859
0.19610167517042268
0.21943545824500987
0.2520128487445027
0.30038413336957986
0.37652829649969927
0.46606097645612793
0.20259314215312935
0.2205194393518438
0.2507346813236048
0.2991573594357538
0.37499228011545976
0.4623220784236301
0.20751286867631358
0.2218064097485528
0.2509602809570328
0.29955230584720954
0.37327357143208567
0.4582582130501667
0.2093262309295366
0.22274792639861984
0.2527950585708347
0.2999268879655434
0.37227583015747606
0.455472389422982
0.21000889297209457
0.2239003355506679
0.25468324545106324
0.30249088377156313
0.3733970811182512
0.4546462198553718
0.2075988872566123
0.22408611379275323
0.2569298045564155
0.3066927343219481
0.3769847481106561
0.45678635030125425
0.20345026966010077
0.22445559119767738
0.25928261378580325
0.31065065963792754
0.3814449128351241
0.4608564823014118
0.19724069919285284
0.22361854814706908
0.26200227254831615
0.31372489952995397
0.38447255051794066
0.46463582564877315
0.18895971201294265
0.22319129027898243
0.26425526274887995
0.31651434324421157
0.3873732867762487
0.46752499948414605
0.17943610142445468
0.22165403410017873
0.2661700754237246
0.3172448711123109
0.3886335456211687
0.4695252079969331
0.16693511215982726
0.2175616163452559
0.26781388045875276
0.3174651152711833
0.38845422916316413
0.4696978969115529
0.15236945530929324
0.21185843483965563
0.26790655252745965
0.315412853406969
0.3857914351744467
0.46665578804312174
0.13620697640534823
0.20291076698729701
0.26686520728368024
0.3143903539942106
0.38156733858481684
0.45983810637213945
0.11997185817607263
0.19188692294008325
0.2639578146335768
0.31102421821790566
0.3768489197268335
0.448039368608439
0.10207421475240215
0.17697428064443868
0.2557331161674732
0.3045357808441057
0.3749840000990598
0.43180074591721423
0.06773788048066226
0.1415890677813563
0.2306031919547592
0.2778655020505609
0.37206862907214394
0.42148952813585916
0.835396483413
0.9134053678317083
0.9473107618237671
0.9666102338708482
0.9810922952807579
0.9909968785651384
0.9978520098182727
1.0140586277344106
1.032542965765075
1.049770436537027
1.068628549756828
1.0837244691959202
1.095303959172235
1.100952842464669
1.1025220608839665
1.103258070111076
1.1007255196724726
1.0955469721710938
1.0886049589655429
1.0797640831497082
1.0674626476900682
1.0568217043514319
1.0420341143045553
1.0234157476611025
0.7541096897505324
0.8948303483812182
0.9433384729184237
0.9693066016031291
0.9845985618863706
0.997003155196982
1.0115259029584638
1.0285154474092306
1.0500251455549223
1.0700597170857449
1.0884564465025164
1.1009348278099784
1.1083769699335932
1.1124516497761354
1.1138221793387988
1.109947573936659
1.1067253199062501
1.1002417332396186
1.0915007963282244
1.081779349612876
1.0683026965946762
1.0555889571233399
1.0400798591136586
1.0214049481322642
0.6960416368255672
0.8594243458213118
0.9250689768959889
0.9628202706139296
0.9849847427410858
1.0026491673132674
1.0225289513666667
1.0454742223444613
1.0710692299321185
1.0903351192744628
1.1058672051283231
1.116717655613294
1.1212918976784638
1.122314328872354
1.1201048438399628
1.115464923246861
1.1096256112569587
1.100176904105583
1.0928210764455255
1.0799199487339515
1.070107153520623
1.0566711306659142
1.039378827726276
1.0210064272382504
0.662867677724676
0.8208125156730629
0.9008635745112371
0.9469686613869518
0.9777291077352848
1.0032688904987033
1.0340246196280014
1.0612794534630763
1.0852611310809062
1.1069679902453038
1.1195998396764182
1.1273960831616532
1.1299243491863105
1.1287932045354518
1.1244832553686208
1.116818006305827
1.1116884484170317
1.1012624936871627
1.0911491881360131
1.0821758774867483
1.0685267561447573
1.0558320801542453
1.0375307413086434
1.019313029277985
0.6393899084103778
0.7854412921628435
0.8720887661372567
0.927389107360478
0.9689578564826947
1.0035140220819536
1.0387207765610995
1.0714914166720664
1.1000071364493051
1.1198718926174276
1.1291445283950867
1.134660636257321
1.1350691224898402
1.1317527625505093
1.1263702496307821
1.1197458675386973
1.1122411304672162
1.1013681067449241
1.0917549685481578
1.0811246072052878
1.0691193878427145
1.0543296656120291
1.0364068186361617
1.0174946599176449
0.6205209609754874
0.7557285806947351
0.846309733478504
0.9101182456643057
0.9583748806905041
1.0027365242455197
1.045077123925501
1.0823775936306197
1.1080365261065939
1.126359137885915
1.1341634529412359
1.1362155874677666
1.134376039346509
1.132683099409269
1.1248531643904864
1.1186387938642175
1.1076469154994675
1.1017969020541223
1.0907573603491143
1.079569378597899
1.0656675628993597
1.050212146195044
1.0338517056955097
1.016769948692176
0.6061525437916272
0.7306531789004577
0.8227507248229233
0.8929798034215314
0.9515844720040602
1.0028890975878182
1.0501869509407589
1.0867658619082432
1.1162886651500339
1.1291323459868605
1.135438605101729
1.1373503557271232
1.1350153588435081
1.130160942652573
1.122817352965249
1.1150399700838525
1.1077004466118736
1.0986375783956344
1.0884213678908459
1.0773884276058014
1.0651626427152348
1.050789769501018
1.0332326798580374
1.0164883597896492
0.5909828271863047
0.7101413715911216
0.8049514898427059
0.8798481935736825
0.9465175668044782
1.0062254682364764
1.0574590467548488
1.094449804385918
1.1168935047780273
1.1305693879812675
1.1345054976071958
1.1347925582763092
1.1311366768863769
1.1272163774894175
1.1201176286037344
1.1130399616677538
1.1077024326562277
1.0978909590078825
1.0881685588226253
1.0764243904496127
1.0630206145215957
1.048884557003479
1.033796604041844
1.0178439698468562
0.5792784875422748
0.6956351377366554
0.791874519197525
0.8729373781312213
0.9456199578086552
1.0127571434522304
1.0625224262933233
1.0932500448302411
1.114587747944582
1.1260431516349747
1.1293289258446857
1.1285071018172308
1.125785025714945
1.1210988994002051
1.1171276802249481
1.1108791430655311
1.1014664865790456
1.091426011880318
1.0842012377404329
1.0732605645620787
1.0635092902891659
1.0501646118815418
1.0339100667660892
1.0158038287507138
0.5710393916708668
0.6853825705568509
0.783517668531005
0.8701404007181442
0.9492100680328006
1.0163384800070216
1.0655250258399787
1.0949405943168788
1.1118545123631842
1.1214508150386167
1.1233156759399574
1.1234154109888237
1.1205203985089631
1.1166636568137391
1.1113723454617574
1.1042111150111626
1.0974633780942191
1.091859531005346
1.0805971080146837
1.0728322641834072
1.0617252719373966
1.0491075354047672
1.0345168982448405
1.017601911822201
0.5636593114985299
0.6785473394909395
0.7803791692332297
0.8745802250481344
0.9571917545716724
1.0233074765699661
1.065875434020606
1.0913413175418571
1.1065189306573786
1.114413533509978
1.1167798386044536
1.115763725887942
1.1137933443992538
1.1111840556926105
1.105519476422078
1.1011679624689008
1.0943653932028976
1.0886259070366748
1.0795230550476473
1.0706914495368869
1.061558273714936
1.050444528352608
1.036459528535675
1.0208610613167306
0.5593271730912427
0.6769991934415441
0.7822864599698631
0.8819042476023047
0.9662941798260165
1.0273129641363814
1.0672485673871202
1.089767689932652
1.1005753006976233
1.1059118306939744
1.1089691893006994
1.1085414612910287
1.1074366927085777
1.103400412865544
1.100844929557193
1.094595962763381
1.0896873358995944
1.0846134474906601
1.078222654613069
1.0711418364442513
1.060152992104239
1.0513376860631192
1.0384279505286063
1.0234048685153245
0.558844332260356
0.6793140296248216
0.789105166529861
0.8940923714263536
0.9768612658531662
1.030753497683183
1.0658257419755193
1.0836902239410953
1.094873061062299
1.0981180565159512
1.102064658131733
1.1010830495783923
1.1006347209842788
1.0977302749571165
1.0951832346706687
1.0903013304784615
1.0859063233541222
1.082047145053606
1.0772135539203012
1.0702788517254072
1.0634555442239744
1.0525886056411193
1.0404931159678643
1.0255380980888869
0.5623982545713092
0.6845736798237004
0.8031713611684015
0.9091707601969042
0.9855840073432203
1.0354617545354956
1.060701804015089
1.079108942320336
1.0875388589904873
1.0919624772258434
1.0960746297345276
1.094778899778869
1.094333686108335
1.0916714755178294
1.0901465576455125
1.0879285538781878
1.0830547275445832
1.0786986735617496
1.076263899455579
1.0694400740742214
1.0624470167593558
1.0542625527486569
1.0410823644256297
1.0295063603359702
0.567885727396879
0.6929788066122837
0.8189048690329415
0.9237513835640458
0.9916285253676078
1.032458960106789
1.05702937345338
1.0725511771654848
1.0796372204210214
1.0829778860546284
1.0864697996030037
1.088250576473209
1.0881960280916365
1.0887133563415419
1.0855988930648346
1.0850743614040372
1.0807683557930856
1.0794216937470433
1.07626956926183
1.0713699197055415
1.0657752576909363
1.0565617711511455
1.0454922236225632
1.0322981940505822
0.5752306597465708
0.7094628824256327
0.8421031113179976
0.93836353116984
0.9988434014125019
1.0331929244863702
1.0538083822139341
1.064869922943862
1.0750421863723711
1.078658365787965
1.0814453102841812
1.0822886557188331
1.0833776201169083
1.0816618465304926
1.0829326932555847
1.0826437034098386
1.0804915674130269
1.0773106028007136
1.076484519176182
1.0705191215732741
1.065205125003047
1.0571934487866894
1.0446930611188312
1.0327525855677595
0.58494403612271
0.7326321270731698
0.8656730183910294
0.9522893941458951
1.0013223902056068
1.0299183741475548
1.0487215793458775
1.0616117187283096
1.0684683752108217
1.0714031919109266
1.0744560450911256
1.0767538861897539
1.0796219908040154
1.0786527880782766
1.078694109780204
1.0803909194462324
1.0800389589720079
1.0777626821401254
1.075144844448322
1.0712417917697759
1.064640810071265
1.0568607970085278
1.0453304211806098
1.0312736408601848
0.5962647302130646
0.7596012656322615
0.8896233392615676
0.9645027031897663
1.0047648425817042
1.0301357562936315
1.0449239597033075
1.053276304273102
1.0610097990129308
1.0650984902629177
1.0681889389089478
1.073515555664468
1.0741621513005375
1.075357980685697
1.07718644049339
1.0792146186703815
1.0780956310328775
1.0768646284425603
1.0740592535568299
1.0726764622311669
1.0665726007461804
1.0569408292563416
1.0450367741102033
1.0322310604528069
0.609854678862769
0.7924083017999748
0.911151474692246
0.9703792824167886
1.0040356377153945
1.0230601574852778
1.037123772349596
1.0477714314154063
1.0557115839711884
1.0581333196119311
1.0633677393105883
1.0676067519606445
1.0698598842674292
1.0728543667881676
1.0776787389122249
1.077933298488711
1.0773552323171047
1.0772734089311884
1.0760541996336037
1.0720628812996182
1.0667533612117905
1.0573476496109613
1.043934583671958
1.0293560790161096
0.6280259120368172
0.827119092696884
0.9261558305705471
0.975686152911585
1.0038503848591638
1.019361567506496
1.031034203529523
1.0398505063716719
1.0465492335706748
1.051525088168143
1.0586826992579066
1.0613805515176455
1.0681232473507647
1.0722715815091077
1.0749491711944188
1.0788990767918816
1.0771014998899133
1.075278910536373
1.0754542403694964
1.069222781786569
1.0644118713723552
1.0558881301412286
1.0434243253706215
1.0279095774618972
0.6564623132127421
0.8599778192408368
0.9370529839769294
0.973530098786768
0.997969937506112
1.0137082689866164
1.0247361016472245
1.0315297371316332
1.039885206176174
1.046610773904043
1.0544187342472968
1.060281816518378
1.0654318714467317
1.070709110898717
1.0733687291344571
1.0738842881159185
1.076088500036698
1.0755662178680778
1.0750015039133605
1.067647005763049
1.0634550487924532
1.0535106756324206
1.0410543136930717
1.0259587994994517
0.6990670681540996
0.8833510960611043
0.9433448631357914
0.973475928367921
0.9931153067767564
1.0060388675299272
1.0164758906696587
1.0245074271853565
1.0328100074341826
1.0409950033042656
1.050608822106595
1.0567028322862746
1.0628633048230716
1.069086617250493
1.0715385004675986
1.0740134748144459
1.0771168970157732
1.0745927677835894
1.0730418083863096
1.06759288031656
1.0605857292280787
1.0513235133501704
1.0396428656401009
1.02490186111325
0.7587137933978997
0.896643111892921
0.9418172919725001
0.9676661341058267
0.9861881925092904
0.9962260698948117
1.008532436526022
1.0165301347780182
1.0244955215033433
1.036329475442365
1.0456607560968292
1.0549793588141196
1.0641285001574596
1.0677881062799894
1.0695462872582993
1.0741254675763434
1.07291735507611
1.0728194841326357
1.069683247791698
1.0648630469613316
1.0567940155250322
1.0472698688085134
1.0353394439978414
1.0230728030371716
0.8189994801453118
0.8968426482607621
0.9325041677821602
0.9583147058165156
0.9760486548790711
0.9881696338666413
0.9978869516663831
1.010738764583397
1.021361578117528
1.0332061426140287
1.0446041636961043
1.0525129806518991
1.0619409140540257
1.0678914114365634
1.069550679562775
1.0728334758960798
1.0736648825641009
1.070482224599467
1.0673682551091048
1.061657217599362
1.0549835452732843
1.0458224162107157
1.0347044120808613
1.0199826437544672
0.06555463058762889
0.1297961113029611
0.2071388237403814
0.26153774832378707
0.32764125329752886
0.44685006146464823
0.09205930977308284
0.1580252351970418
0.2294368235632523
0.2777891179273286
0.33701617783736565
0.4055414818645862
0.10488591579693753
0.16940018553887784
0.23446057710018423
0.2798713482075031
0.33855215788735954
0.4043081125470756
0.11642925864198324
0.17815340228983123
0.23679448314013243
0.2795340059855404
0.3367803585424778
0.4057106942757929
0.12832826143858828
0.18516370370377602
0.237051166796602
0.2781568397629295
0.33446959633239565
0.40158054383616537
0.13967318201615223
0.19052495756597512
0.23732223410470143
0.27710516048184686
0.33119603039138035
0.3955636878437407
0.1500524868012884
0.19439422152650365
0.23718976268732198
0.2753371293254268
0.32739375279542804
0.3878098982492824
0.15851970951115835
0.19719831487433212
0.23578151315556814
0.273164606290484
0.3228905131630517
0.3798476377210638
0.16508275021645644
0.1992392453106211
0.23544487839253514
0.2722741620277113
0.319714456435327
0.37348711553693253
0.17058751086098614
0.20051733359053472
0.2355885015332344
0.27171690194748155
0.3177528956053631
0.3696769828853212
0.17402325819958384
0.20174409151595302
0.23675264538271878
0.27258000454033454
0.3180665500885602
0.368802367275006
0.17614714841236928
0.2027579055692239
0.2378011017147645
0.2749762815804222
0.32118978235538065
0.37075113793141984
0.176398822515743
0.20346945531084448
0.24003035931313277
0.2790798838059668
0.3253688698507422
0.3752411593327955
0.1745366291666078
0.20389655069039703
0.24213368695685905
0.28325928365080955
0.33155176048539686
0.38244901757368277
0.17148301485003734
0.2030791411817961
0.24434165470343733
0.28754152575334413
0.3384666713448488
0.38996459032888414
0.16632876971459992
0.2020630562675984
0.24598702837186803
0.2922157691515979
0.3452675232950903
0.39845915274177085
0.15972821165159293
0.1999629374546111
0.24699464788277536
0.2961308171756703
0.3520504622587756
0.4077891621952673
0.15149539804551307
0.19713583272649607
0.24798777661198404
0.29819007200858483
0.35729147654024496
0.41623499397492536
0.14100921994814253
0.1926953567037201
0.24752563923511112
0.2995872534763138
0.3618026428609597
0.4230505096679828
0.12879387252771649
0.18577848384751955
0.24520869611119162
0.2984472642192256
0.36342538066539093
0.4290810308579857
0.11462501698987335
0.17564642693585186
0.24197104121084026
0.29594239092837965
0.3641299453389711
0.4320984254473026
0.10057491120453628
0.1636388989922597
0.23527646446381378
0.291082640226514
0.3619089703277752
0.4319145298487317
0.08555177795746399
0.14854512304256245
0.22520351748383913
0.28216227144584
0.3575801489696503
0.42909099766191294
0.05878973822787566
0.11734745151175299
0.19793482670330606
0.25633981245541587
0.3446541378837118
0.43853375566035563
0.7857159267896185
0.8729588883121121
0.9164650409246042
0.9445338971577237
0.9616992553912797
0.9774908698689031
0.9887432952108006
1.0015711200081006
1.0157700415537982
1.0301910226113198
1.043848176825104
1.052065199428035
1.0590977442338896
1.0646239473109105
1.0720943027806047
1.071817993131878
1.0704337950112872
1.0673301002386184
1.0647824058728772
1.058835522054837
1.052804345100007
1.0428538313465745
1.0318745984117441
1.0200510547072035
0.674781048685651
0.8224594549551422
0.8869912807202839
0.9233874632507492
0.9459628821545384
0.9624659932451509
0.9777790190000566
0.9947669811217598
1.0117568444108096
1.02796566952834
1.0407484651430727
1.0504458893531192
1.0580301905822893
1.0646226960956302
1.0670856879444195
1.069032170129058
1.067148994835923
1.0657330269763703
1.0608171631169134
1.0555926849082886
1.0480451686655483
1.0383970541863323
1.027887456390553
1.015667810896889
0.6042032815616349
0.7611232161873506
0.8434518453656064
0.8906792779271089
0.9222971244404797
0.9440903093526076
0.9656659032714019
0.9862910416567897
1.0070707146020348
1.0233379138660321
1.0369063030330077
1.0474949915076646
1.0559340458520234
1.0610638142934061
1.064509556901176
1.0645065319326068
1.0626405153509295
1.060473658711827
1.0555929646244884
1.0500962726028091
1.0429814319597033
1.034362087045223
1.023340295368153
1.0146261873117393
0.5597969456170345
0.7030979525710717
0.7915965572900329
0.8494240869127112
0.8893785093410297
0.9190481868657541
0.9479073915957817
0.9740993015271985
0.998595480133801
1.0177579832517478
1.0324637991930878
1.0447836079310786
1.0511264138710643
1.0558494509461576
1.0593756856605272
1.0581431965532708
1.0560324134863628
1.0533562146130135
1.0501801248134435
1.0458042081386296
1.0374120182087652
1.028825933521688
1.01923567985059
1.0066344409301096
0.5270709829556534
0.6543493259861586
0.7426075065844374
0.8070535737483978
0.8521210925991393
0.8918813483784496
0.9288112353269534
0.9605929907571454
0.985508914710268
1.007779966085055
1.023332361271806
1.0345248495615516
1.0422849523220743
1.0461304949581496
1.046761414389572
1.0481574786366716
1.047020874162665
1.0447514515454233
1.0398493234991197
1.0367489822659035
1.0314163717820126
1.0233144785351447
1.0121324730836703
1.0025174676402497
0.500741600056922
0.6119956828564967
0.7008874797356731
0.7672827156767312
0.8180857231846886
0.864726129174694
0.9054611776784003
0.9429274406292154
0.9708132132936024
0.9959621857891714
1.0109787477570475
1.0226350803700983
1.030910650319327
1.0343543780433007
1.0367266775364017
1.037646274544417
1.0376535899603825
1.035815138060121
1.0315222502791919
1.0271350868773415
1.022397376191497
1.0142993129535196
1.006342981253668
0.9955400780512963
0.4798746664565895
0.5789490603422702
0.6630333977943289
0.7318372598660194
0.7891551652342155
0.8410576411380946
0.8878242763540134
0.9280057493416749
0.9603420636757946
0.9823899845439737
0.9986069630962591
1.0088011887081374
1.0167584649395465
1.0210984822879112
1.0249524289824576
1.027056321712387
1.0247214098961568
1.0254152301536934
1.0224715684965116
1.0180309505824654
1.0137929902632619
1.0069956023481041
0.9995594356288106
0.9906694939050199
0.46158084186957
0.5527329030255695
0.6332417503533464
0.7023654817170801
0.7649693811739707
0.8235688083636189
0.8744244638790992
0.9173643171649778
0.9457790707847816
0.9678795277017728
0.9853727826812301
0.9957697370879696
1.0012952718102333
1.0087554614878314
1.0120203546001727
1.0152299096244823
1.0148072223350644
1.0155067145609198
1.0143050958825335
1.0106760924508247
1.005247737595375
1.0006108113915826
0.9922359250292004
0.986493077520327
0.446094545609041
0.5309824691770184
0.6105969786799385
0.6802208637920525
0.7488019124044278
0.8135057210486106
0.8668187178433948
0.9074808273185959
0.9371660754765919
0.9582274627680312
0.9720182137201036
0.9829923263616752
0.990104093898757
0.9981390398912194
1.00063284973579
1.0039936767682311
1.0046928085126785
1.0065700841573375
1.0047394363292919
1.0042366591435545
1.002154042643995
0.9957240017992773
0.9879270589584399
0.9819140325868924
0.4381623357662171
0.5177602872635585
0.5940250572487321
0.6662306926161327
0.7423192154533504
0.8097657025560194
0.8627867766682392
0.9017085567826739
0.9296106144071793
0.9492598028535708
0.9636830319974379
0.9722481713888909
0.9839202833862638
0.9897314779631092
0.9918962894591814
0.9951159205542323
0.9976937731692679
0.9977488366323269
0.9987031039119174
0.9991869834980169
0.9971337291995643
0.9935787166121146
0.9866877772824618
0.9815458722589484
0.4353874223654796
0.5117074082612153
0.5882300154441056
0.6663448306680146
0.7435664433150315
0.8120178238802122
0.8629611366611863
0.8999137338530306
0.9241694113130479
0.9431370589523214
0.9563353281760058
0.9670302373454243
0.9756165928443302
0.9828528158445035
0.9869648195048751
0.9909670776352831
0.9923690067903396
0.9959005460936107
0.9964643397208759
0.9950843583048696
0.9946700162777885
0.9938285757371604
0.9887287630182541
0.9828134734803863
0.4358510736656377
0.5129156279230911
0.5900536529075616
0.6748021819924979
0.7562439393789713
0.821063584112946
0.8685450298895344
0.8990341794413724
0.9225564574761512
0.9401395779312327
0.9528522339944114
0.962770632429362
0.9729100066472767
0.9794473070994344
0.9851971966990686
0.9892552044765897
0.9915158972958376
0.993593986645933
0.99562097796226
0.9969748801677101
0.9969627361209522
0.9971002464874699
0.9929818117604751
0.9889427668758796
0.43899870406418695
0.5170318817473337
0.599803933661199
0.6926418494418116
0.7721868171430083
0.8319694683596072
0.8745870479242043
0.9027255784853299
0.9237274155759062
0.9405804336011457
0.9544339419896182
0.9631308846026503
0.9722850014163475
0.9781584116211531
0.9852803917726255
0.9895185820494998
0.9929951656962108
0.9954180594803186
0.9966789544254319
1.0010159175631448
1.0010650446044358
1.0029593828356582
0.9992760403733627
0.9951995959581861
0.44662092834294337
0.5252472478880374
0.6172429346834728
0.7137954815636125
0.7918807872630093
0.8446579590091262
0.8823106533897079
0.910504385323374
0.92860279700334
0.9430249854701859
0.9557605714696992
0.9656726975989683
0.9754019261155636
0.9825473174365097
0.9881034642734889
0.9909972360892583
0.9965555839138539
1.0028687179829983
1.0053570644080372
1.0097380128920241
1.0111799537751738
1.0095142211988075
1.0053280091478194
1.001707076263863
0.4572955087753955
0.5405594911728441
0.6412632766041897
0.7398581993506667
0.8116807282281457
0.8581341854965626
0.8900897369788822
0.9148020508802573
0.9324035538825134
0.9479922170365046
0.9626088881657924
0.9715558682170503
0.9809731844805974
0.9860732705730407
0.9939012632332114
1.0016416446446994
1.0047049486826072
1.0100485670599968
1.0144314258617215
1.0181933522176008
1.0190998170873056
1.0194992198494321
1.0149104496072772
1.0091110986099834
0.46887662894205745
0.562020836124713
0.6728027925569752
0.7679257229188636
0.8295332918812565
0.8704049132189221
0.8996167928296087
0.9223117155064681
0.9410610224434441
0.9552066039550012
0.9658423128001719
0.9783797654733597
0.9873286528302407
0.9946718815677301
1.0024187631656585
1.008551953887438
1.016207299233104
1.0213804987164457
1.0253997029062063
1.028942992164981
1.0309187082873499
1.0296008824327234
1.0230400937678568
1.0164010788702815
0.4826423046334444
0.5922465990244548
0.710468878577716
0.7951856267502487
0.8473389145369952
0.8821638655260944
0.9082317517838414
0.9279348567046608
0.9460718675040607
0.9629238840415129
0.9757242086268965
0.9852128620629826
0.9952803723330367
1.0049575552923593
1.0138819063680156
1.020128374472535
1.0260957426311756
1.0318233213642127
1.037254203675275
1.0378641752683548
1.0401509298070837
1.0380364034699479
1.0297338803327756
1.0245756384620048
0.49948941453735574
0.6294329989424016
0.7505188899835857
0.8231032815793297
0.8670613464032211
0.8961350635995966
0.9188518245531555
0.9384094925161329
0.9555158353151711
0.9688534215376807
0.9826199447640196
0.9932729161005778
1.00402292953248
1.0155393621785311
1.0243715015337302
1.0324499376493805
1.0399423454130146
1.0442082101398815
1.0474746703528133
1.049894961288121
1.0483595110649828
1.0448417042132914
1.035858415903502
1.0301472599522365
0.5204839709394627
0.6752511849210692
0.7887572893395547
0.8502533176695443
0.8855333453614822
0.9098577027073783
0.930271617928987
0.9477330669331749
0.9637662919190986
0.9800496382912178
0.9921995983510606
1.0045643346726219
1.0161879674356344
1.027307522061919
1.0368929978194434
1.0443020190987313
1.0513018147223663
1.0555287408747307
1.0586447978488327
1.0581426932255635
1.0567562868241842
1.049743264758351
1.042274354120423
1.0332374295732514
0.5475470187435548
0.7271489038699904
0.8254242190574324
0.8735923048978189
0.9033710449350312
0.9261845721523038
0.9426402929484035
0.9605577403693463
0.9745388295680827
0.9898900856006013
1.0021330166782543
1.0169974273740714
1.0289474516522248
1.0391216906788519
1.0489871530248132
1.057216777012086
1.063132782767299
1.0651528773500922
1.0670181778086594
1.0640481562937105
1.061414923401527
1.0544936436439614
1.0457330061452852
1.033730348260726
0.5882518644682655
0.7804974759715295
0.8586435855797433
0.8972279015487241
0.9210266367970568
0.9415130643324644
0.9574339819647483
0.9732072897894821
0.9869936424124091
1.000265042780229
1.0156082817699348
1.0300634027909725
1.042064195885074
1.0533186637151857
1.0603686188970232
1.0668346509901363
1.0718526464182045
1.073788704133648
1.0737964173852173
1.0714720356093799
1.066131204760087
1.0572397297817984
1.045759861684367
1.0345233759324692
0.646795523091576
0.8274107870324251
0.8891327433168719
0.9180950798565889
0.9416107106725007
0.9560126061780228
0.9737903815661126
0.9873131667193019
1.0021478296636703
1.0151801598644192
1.0282695639173522
1.042768468511626
1.0547857420965026
1.064974802363575
1.072551583085755
1.0789532758149227
1.0801051222066178
1.0807772836344074
1.0778225723066248
1.075092171927659
1.0680346076170757
1.059780979175583
1.0456392472658933
1.0328828445768525
0.7296066091235858
0.8667061278664584
0.9121707120184844
0.9379784979942739
0.9577728783798756
0.9719167018883527
0.9890999358331699
1.0038324299481518
1.0163411965571387
1.0314158539401128
1.0462346996996625
1.0573668739932078
1.0666517130564972
1.0762186228583543
1.082559111745578
1.0863346473897093
1.0884102744144943
1.0848291179767726
1.0818931131584217
1.0784715762240165
1.0683317175433158
1.0588392293928863
1.04441597773795
1.0303070540037873
0.8231287057730787
0.8960606903606219
0.9305576632117811
0.9546266522606079
0.9737677432867484
0.9895293542370182
1.0039513953471466
1.0175853906364112
1.0304898800350675
1.046013165274744
1.0602259657891884
1.0726472436284409
1.0800855926197495
1.0866479818427277
1.0908782276440974
1.0926100190375672
1.0933379145574844
1.0883893666285067
1.0850240893698238
1.0766747986246958
1.068206940019536
1.0564616292335323
1.043016468165471
1.0267906180828423
0.08193761023996171
0.16852890877374616
0.2556490008173121
0.29825296872120916
0.3678107336909358
0.45065502436074467
0.11779991567654713
0.20293795376527463
0.2778564269343632
0.31590977884038735
0.37596885771872635
0.4364840486972368
0.13536554850764967
0.21324959935740606
0.2791350287244765
0.3168375847127386
0.3784812142771006
0.4511226657577363
0.15028571706850852
0.2195374796555261
0.27673803579813133
0.31532197109758503
0.38191084003062725
0.46516614394454325
0.16584450409507037
0.22407666438784135
0.2741027291803163
0.31390134802034997
0.38445359737405177
0.47438162741406475
0.17979829609070228
0.22827098800323575
0.2703654392798729
0.31164229724485565
0.3845487897772234
0.47559932404428523
0.19307891058694007
0.23065757855973598
0.2670867722340669
0.3099089064508563
0.3831556829893094
0.47444716661805353
0.20419228808814838
0.23233820956000956
0.2646368243951976
0.3083114821052571
0.3803063749847751
0.47114366235507815
0.21296032238583462
0.23346325862715142
0.26223292287216504
0.30644562751532256
0.377550800860199
0.46408485478940953
0.22024191678369495
0.23469259391812147
0.2602819559879847
0.303969532396822
0.3747837294637227
0.45983811780995915
0.2257149957443112
0.23548676380100306
0.2602582811796934
0.3026238216486184
0.3717683987282833
0.45625054238580126
0.22836446440971794
0.2359814830737544
0.26118558829224625
0.3033184754476648
0.3710448240977786
0.4544486926869357
0.22825767964997865
0.23738537054847034
0.26331803727365893
0.30622566104193905
0.37322920069488513
0.45578003992482674
0.22603232755662372
0.23760448890933383
0.2656166271588095
0.30999796522467077
0.37846734659048553
0.4599261630196721
0.22111914277563124
0.23695966335151852
0.2679838962032926
0.3142890240346518
0.38321395013601905
0.4652277496598546
0.21414787842979197
0.23698736172021992
0.2714495185741202
0.3188622158672009
0.3882728157964525
0.4699309484900564
0.20518920342950753
0.2364436603891976
0.274910794451491
0.3222032300255938
0.39136382061433256
0.47509255953130025
0.19431344238387127
0.2348190879775891
0.2769787972437058