/*--------------------------------*- C++ -*----------------------------------*  =========                 |
  \      /  F ield         | OpenFOAM: The Open Source CFD Toolbox
   \    /   O peration     | Website:  https://openfoam.org
    \  /    A nd           | Version:  11
     \/     M anipulation  |
\*---------------------------------------------------------------------------*/
FoamFile
{
    format      ascii;
    class       volScalarField;
    object      U;
}
// * * * * * * * * * * * * * * * * * * * * * * * * * * * * * * * * * * * * * //

dimensions      [0 1 -1 0 0 0 0];

internalField   nonuniform List<scalar> 
2880
( 
0.07716269678297566
0.15349839356787842
0.23496072470034612
0.2769652799417706
0.34839245367540095
0.44316539307269076
0.10977556573376905
0.18586178806078874
0.25834593721322957
0.2972264247551877
0.35997978470990216
0.42787876675845843
0.12458717708527244
0.1957661458590205
0.26095098793172933
0.29993657627491166
0.3652206739409152
0.4443121200306637
0.13765993824294825
0.2024795605062535
0.2606331614130083
0.30045170794411036
0.37164752456860456
0.45919896974554125
0.15146319946808312
0.20800720971341505
0.259122778266544
0.3014161910844481
0.375747195417222
0.469144511810151
0.16464274956852581
0.21199946641528075
0.25689602075188106
0.3018281999732506
0.37797705311624186
0.4721794414690827
0.17696428734897368
0.2152745257549825
0.25512683411138537
0.3013626446419294
0.37834231102486254
0.4716402204835709
0.18721578238285214
0.21778586419303836
0.25361151923618885
0.30084154246232336
0.37728834882574774
0.46871125889541704
0.19550523553421045
0.2190536394975078
0.2517318612523281
0.2999318881143386
0.3756056165123376
0.46455431454117435
0.2019730491995045
0.22014198409281585
0.25045555157839855
0.29871902667956457
0.3740599909383889
0.46081037229115496
0.2068636718984173
0.2214208450863325
0.250692452826431
0.29910801334262166
0.37238704937897865
0.4568285109419154
0.20868978940400568
0.22237020586261932
0.25252327912253214
0.2995292665538653
0.3714563844293863
0.4541125691994496
0.20935846907881
0.22350989840587346
0.2544275956817067
0.3021161618078459
0.3726336257727006
0.45337620701710507
0.20697403277915857
0.22370571390072091
0.2566801611514277
0.3063238311292732
0.3762732102254788
0.45561866368930193
0.20283566249686003
0.2240605879031177
0.25903123650139404
0.31029856814228446
0.3807745786064173
0.45975545632843046
0.19664878697116284
0.223228926619882
0.261735280346495
0.31340016601413645
0.38388264386872895
0.4636226153046685
0.18840992449157054
0.2227760155195738
0.26398500843082096
0.3161879860864919
0.3868472541072746
0.46662689252765965
0.1789015285138991
0.2212131775498004
0.2658691652504559
0.31696418259673137
0.38818798732836046
0.4687428725114579
0.16644867096926944
0.21711569697222904
0.2674748693721992
0.3172015706868576
0.38807939111178985
0.46905056717879773
0.15192954780078757
0.21137836026264653
0.26753843417274015
0.3151740618272396
0.3855150209191495
0.4661699783083346
0.1358106379070468
0.2024270435769367
0.266449975694892
0.31412011845247956
0.3813670778951751
0.45952306225335005
0.11962360117773378
0.19138027280871403
0.2634840604402297
0.31073628348620297
0.37669013311938915
0.4478957173381602
0.10178549002307129
0.17647197843655127
0.2552356672335277
0.3041977800762338
0.374779368948292
0.4318681590660039
0.06760858722516501
0.14116515931327686
0.2300631324418226
0.27755602704324317
0.3717061939537306
0.4219102315585494
0.8349667020798096
0.9131209661642448
0.9472740481627265
0.9667414749505995
0.9812777200069264
0.9912295223901573
0.9982327163235487
1.0143868532001985
1.0327968778035777
1.0499955290078236
1.0687273887699176
1.0837684187431615
1.095289266538193
1.100956060805925
1.10258037439597
1.1033113191935304
1.100801820319443
1.0956616526392757
1.0887661298218925
1.0799759141777658
1.0677898791233005
1.0571201631980103
1.0423589638403232
1.023840221802562
0.7530871744404607
0.8939790097131614
0.9428532246450834
0.9689787042570521
0.9844610086605446
0.9969558962251619
1.0114562461683438
1.0284901439144505
1.0499608740424549
1.069933800036598
1.0882189503364692
1.1006779956423314
1.1081624322524366
1.1122656676862572
1.1136183633116403
1.1098375889924452
1.1066173676699436
1.1001937801042538
1.0915216612239214
1.0818636608832584
1.0685264119967595
1.055848386129522
1.040373894361152
1.0217986025195074
0.69472856568292
0.8580980336065981
0.9240696789223323
0.9620202158340301
0.9843711660714954
1.0021697738824873
1.022043910252148
1.045013447557512
1.0705041010176426
1.0897972222821877
1.1053390620027468
1.1161668440156982
1.1207958092501307
1.1218601213297492
1.1197312499683418
1.1151696421619228
1.109385638295725
1.1000676606267292
1.0927095975535863
1.0799638553523045
1.0701421640685602
1.0567527196507338
1.0395652837473934
1.0212687762346804
0.6612755660661622
0.8190406555869061
0.8993019605123436
0.945671993771191
0.9766344623943661
1.0023156346017763
1.033048966032576
1.0603451333046658
1.0843581155027706
1.106030468867766
1.11875274881816
1.1265884959758337
1.1291706439466531
1.1281115378650808
1.1239022954385465
1.1163902195203355
1.1112511266010272
1.1009760356853835
1.090948459122426
1.0819777491715867
1.0684388025669629
1.0557796861613011
1.0376028963624155
1.0194731261665066
0.637628760443344
0.7833657143354694
0.8701329208181773
0.92563678466454
0.9672971317528684
1.0019936132176512
1.0373021830245215
1.0701259971606585
1.0986303351694466
1.1185154965636586
1.1279457450296402
1.1335424726670853
1.1340381481586719
1.1308434905213955
1.125574614302669
1.1190449709256423
1.111616813992535
1.1009009440808948
1.0913513536982204
1.0807795116700323
1.0688439896718842
1.0541691919934293
1.0363582872012196
1.0175595535213051
0.6186385133490679
0.7534357899780189
0.843970714332814
0.9078792655888398
0.9562516783721966
1.000712425476587
1.0431406792764488
1.0804804895624518
1.1062802520624824
1.1246761051759344
1.132626364141375
1.1348271343421088
1.133146630454585
1.131493270238236
1.1238620563703756
1.1177261220331596
1.1069435603057818
1.1010820398775205
1.0901593965021474
1.079055798793674
1.065305144948367
1.0499948361391194
1.033705098691009
1.0166867193017977
0.6041015715574825
0.7282066080913808
0.8201667631233043
0.890385681001342
0.9490120805838125
1.000477717763295
1.0478379382988097
1.0845434342107456
1.1140639385274937
1.1271182378193751
1.1335965695912993
1.1356351267868987
1.1334650101326607
1.1287708929788296
1.1216192256644093
1.1139835723116636
1.1067378530323164
1.0977850909628535
1.0876756048204546
1.0767458894712514
1.0646308412299077
1.050375034128654
1.0329460052413164
1.0163056726613855
0.5888950168991496
0.7075674745745245
0.8021211860894402
0.876970783529942
0.943613248534147
1.0034088694500491
1.054688655891844
1.0918057657011797
1.1144340567509863
1.1282179127241083
1.1323893136171461
1.1328429684985712
1.129400976188332
1.1256135287754756
1.118712256865142
1.1117662981296708
1.106472777002657
1.0968263243817278
1.0872167545784075
1.0756115493764706
1.0623882702475058
1.0483895459718526
1.0333801897164743
1.0175126816650553
0.5771424708465314
0.6929404879683958
0.7888870656462502
0.8697576213535019
0.94246428220793
1.0095775434379743
1.0594907165773328
1.0905023186996143
1.1119610759237084
1.1235642252736964
1.1270565875597762
1.1264360820180892
1.123899650049329
1.1193868539627407
1.1155122242778024
1.109391530711838
1.1001961747368478
1.0903335982530902
1.0831670296872047
1.0723835270652176
1.0627042911571856
1.0495137994420174
1.033406165013222
1.0155190054769812
0.5688897974346417
0.6826240329837187
0.7804225206648715
0.8668316809249618
0.9458964976184266
1.0130522656958931
1.0623415959009863
1.0919536729449604
1.109059232676215
1.11880623605327
1.1209199445185127
1.1211809362529657
1.118484021840047
1.1147932629025947
1.109649463768985
1.1026757770263413
1.0960725527636228
1.0905323817574526
1.0795132123680091
1.0718226953822765
1.0608903977685344
1.0484436182248449
1.0340038694128488
1.017308375609325
0.5615814600138818
0.6758456239679143
0.7772376293704726
0.8711481835998762
0.9537462831176482
1.0199112281183194
1.0626693797325208
1.088329874002308
1.103676102376037
1.1117417307555604
1.114306971278798
1.1135048958558307
1.1116985677823847
1.1092169252939899
1.1037404692100947
1.099501100379287
1.0928629157597243
1.087229950500893
1.078322780801343
1.0696723076511325
1.0606907008447972
1.0497507290870183
1.035953471639798
1.0205687731885478
0.5573360580982352
0.6743371214587057
0.7791390396957689
0.8785184142091798
0.9628835739739727
1.0239967860119097
1.0640220877687283
1.0867021865861684
1.0977503020711732
1.1033056347611776
1.1065092893131583
1.1062766482386985
1.105316270432689
1.1014754508585054
1.0990137117539476
1.0929529441933599
1.088170561242641
1.0832219716466844
1.0769994906961855
1.0700900487222758
1.0593815975211256
1.0507145393049508
1.0379910640537016
1.0231901800669916
0.5569425916569103
0.676685243786522
0.786064261874437
0.8908151905585514
0.9735633164146156
1.0275786965089992
1.0627188263806515
1.080767385139876
1.0920976309515409
1.0956095724605739
1.0996707030428745
1.0988946963247082
1.0985819053513592
1.0958220023288996
1.0933711077321262
1.0886707902735426
1.0844465555463276
1.0807222714439
1.076053487142167
1.069338752437299
1.0626770766056575
1.0520664501768549
1.0401593701026868
1.0254494319324183
0.5605517608860383
0.6820147075826275
0.8001745848590887
0.9060398301961986
0.9824834730380838
1.03237503004571
1.0578397323433535
1.07631123084234
1.0849353696003345
1.0895681183280215
1.093762949089373
1.0926547184400057
1.0923432280705898
1.0898723638640468
1.0884675827131192
1.086383142116187
1.081704994384648
1.0775298772634494
1.0752211364430124
1.0686542933326921
1.0618752957484625
1.053870230944859
1.0409312587908663
1.0294796372820723
0.5661425729446063
0.690565880560607
0.8161157274484928
0.9208734813194633
0.9888079869692957
1.0297204029821696
1.0543705659575069
1.0700028375473158
1.0772843690463292
1.0808039032732706
1.084414370783568
1.086305711645333
1.0863888708531233
1.086962955615581
1.0840335405100934
1.0836381165208584
1.0795866160484078
1.0783812739571241
1.0753935967879655
1.0706888300538062
1.0652537328091305
1.0562644699766632
1.0453694073491926
1.0323512094531804
0.5736080055947773
0.7071815684916113
0.8394750376080539
0.9357359606325278
0.996229310593374
1.0306596974341653
1.0513829831984933
1.0626035948911765
1.0728303793533518
1.0766291693252164
1.0795209735000937
1.0804922371446042
1.0816803230645644
1.0801724855892287
1.0815552894418343
1.0814113654299202
1.0794411553330994
1.0764838135422758
1.0757756079378318
1.0700620907634695
1.0649069643894007
1.0570677312018237
1.0447615685926992
1.0329384394495813
0.5834101924925992
0.7304648344950342
0.8633292090693058
0.9499603787312961
0.9990623169277631
1.027719921358325
1.0465940996567062
1.0595402045443822
1.0665081658737778
1.0695993933102135
1.072754070544683
1.075163523374663
1.0781042257270868
1.0773607005828163
1.0775840659477456
1.0794058434500071
1.0792207260213098
1.0771279508355263
1.074674404787012
1.070947119580323
1.0645283409773654
1.0568891018158928
1.0455058079090929
1.0316106531229434
0.5948102052360625
0.7576452954354409
0.8876031665039472
0.9624511185934159
1.0027549616012787
1.0281638067538634
1.0430473306587107
1.0515486679576698
1.0593451324907588
1.0635489527100692
1.0667584777837456
1.0721126043962563
1.0729727330139616
1.07434260272831
1.0763071598570242
1.0784419995484185
1.0775270091521503
1.0764671245600406
1.0738332801124955
1.072491863325347
1.0665409301422268
1.0570755118706818
1.0452867928540175
1.032562401447074
0.6085406158915377
0.7907221270340988
0.9094286852488875
0.9687243970174221
1.0023997499651762
1.0215253155897979
1.0356270158305598
1.0462965147269239
1.054261238060304
1.05687579689489
1.0621510352820105
1.06650705033283
1.0689396861942988
1.072103518883556
1.0769891502939162
1.0774366956993329
1.0770078053338257
1.0770551466417089
1.0759317502057832
1.0720635279522976
1.0668145572089969
1.0575358034689848
1.0442577743803247
1.0297749282762763
0.6268924358197868
0.825756083570053
0.9248423677758177
0.974356985827525
1.0025073396878885
1.0181157295051266
1.0298317489511541
1.038701349163892
1.0454523362288923
1.0505254694330384
1.0577511085583637
1.0606844522972574
1.0674864308217729
1.0717592420575848
1.0745657060991838
1.0785783130949171
1.0769837349715292
1.075316806542077
1.0754988322037575
1.0694280726293082
1.0646267153737339
1.0561501416495092
1.0437699541651573
1.028355755939205
0.6555201114856046
0.8589538205676702
0.9361511730217164
0.9727063648129696
0.9970661196660862
1.0127937037386328
1.023832703195757
1.0307138072486821
1.0390967288431279
1.0459353942575846
1.0538079404489518
1.059811919715402
1.0651129871814973
1.0704890513015728
1.0732859394163903
1.0739479155242557
1.0762011744541908
1.0757523220728278
1.0751825139680613
1.0679820102564386
1.0637339372357497
1.0538502795902933
1.04144508462037
1.0264027852106785
0.6984604266271575
0.8827605450063721
0.9428317551097396
0.9729643909172492
0.9925553527246683
1.0054791189914436
1.015915604376144
1.024003387041188
1.0323524476827088
1.0406202448053243
1.050325972320654
1.0566072563084932
1.062876386169639
1.0691535459806008
1.071747795626503
1.0742833968275283
1.0773683024395722
1.0749440345938044
1.0733775821872062
1.0679652632380656
1.0609834903584126
1.051716543146633
1.0400490232147417
1.0253359937424056
0.7584948518510006
0.8965265437715457
0.9417492826221835
0.9675532511656713
0.9859734070177539
0.9960763301912795
1.0082931179813654
1.0163522809451673
1.0244573793552654
1.0363297208370856
1.045781329847424
1.0551924476493706
1.0643776196405246
1.0681749884153877
1.0700474204011747
1.074583144223271
1.0734686056096823
1.0733249856072087
1.0701977327628602
1.0653513185579897
1.057319035079643
1.047788884488254
1.0358413730961062
1.0234950119784358
0.8194083518286193
0.8972410720094958
0.9328991394571947
0.9585981166317947
0.9762237645213057
0.988327499763175
0.9980405455984165
1.0108699473592468
1.0216086002963283
1.0335451976089218
1.0450188974716301
1.053067843094046
1.0625147160115795
1.0685012691181848
1.0702598486689152
1.0735092377697648
1.0743019524296769
1.0711478809130544
1.0679969785966528
1.0622659371671672
1.0555550866884786
1.0463595754322692
1.0351714026095589
1.0204673311332917
0.06579119118883775
0.13032523571925703
0.20782309987282485
0.2620510892869116
0.32827789182567657
0.4470560263886604
0.09245135715118957
0.1586714214045566
0.23016553020531236
0.278359711686207
0.33765525163357657
0.4061771624848989
0.10533491853535315
0.17003180450869296
0.2351523159987345
0.28045552786341255
0.3392871727530656
0.40527290416014566
0.1169155912132185
0.17875934698085533
0.23742668969631223
0.2801384155114632
0.33764657541093157
0.40690498869701713
0.12885902142588884
0.18574787035124019
0.23765235595032197
0.2787956309929605
0.3354314781228788
0.4030066788054481
0.14025233153924205
0.19108806640041848
0.2378877347627704
0.2777543271971971
0.33224815224515614
0.3971513685713143
0.15068128733012492
0.19493651165352055
0.23770593892938138
0.2760087106024036
0.328508304756916
0.3895266110170779
0.15919094844054943
0.19774120122357897
0.23628488099825326
0.27385871671992856
0.32406691795760045
0.3816442829996719
0.165799144467272
0.19978282050899834
0.235933686004955
0.2729506942641696
0.32089999062938507
0.3752956598049841
0.1713257573066351
0.20106929663981127
0.2360688193703803
0.2723971084019686
0.3189356796109836
0.3714695184883887
0.17479449958924664
0.20229456320753583
0.2372077645079892
0.27323548950307586
0.31921798628574194
0.37057064639026943
0.1769191503706879
0.20330487944190584
0.23826531267986037
0.27559085684864026
0.3222748777737034
0.3724590467218781
0.17716582166831737
0.20401446220080605
0.24048405472801315
0.2796647752247379
0.3264257564162099
0.37686248387322074
0.17530148899090303
0.2044378286357888
0.24259865189443255
0.2838511973642224
0.3325597194495999
0.3839740580358087
0.17221205438162976
0.20364384203520092
0.24481471626130882
0.2881407744651144
0.33942348837330416
0.39142952756174265
0.16703272881470083
0.2026348822325403
0.24647437630063873
0.29279537620045115
0.346172160549309
0.3998446416055015
0.16040321221159293
0.20055420502784815
0.2474942703106944
0.2966856334896046
0.35287839001869076
0.40905567888147526
0.15212676892847138
0.1977289079213477
0.24850316826627208
0.29873908524864184
0.3580647751733169
0.41738933099413783
0.14160393614050631
0.19329506590309356
0.24806477634715968
0.3000953793060921
0.3624907138951398
0.4241067353148265
0.12933901031147474
0.18639329713570688
0.24580137154839493
0.29897317401134677
0.3640592785748219
0.42997672136955306
0.1151077913995954
0.176283517210914
0.24259112925231294
0.2964688131446477
0.36467339391613723
0.43283022049277387
0.10100344838937149
0.16427277793198883
0.23595131468007705
0.29163625281835936
0.36240548812891304
0.43243475834478967
0.08591087725854457
0.14917574756096558
0.2259129885798459
0.28274216187337614
0.35809288128054073
0.42938873456043697
0.05897111700017134
0.11786148576662367
0.1986283689923986
0.25688467432514184
0.34531340044565983
0.43848732669422086
0.786843003525799
0.8739249698220153
0.9172651939060797
0.9452048593820797
0.9623057043331861
0.9779822015547289
0.9892759600304581
1.0021245025439791
1.0163992900903573
1.0308953073737321
1.044579085861157
1.0529254902646534
1.0600105145508671
1.065565569659033
1.0728876952580417
1.0726550740285612
1.0712713938170593
1.068150232752001
1.0655170843705122
1.0595338737137268
1.053415441519097
1.0434525133587362
1.032392497588889
1.0204629848090936
0.6764203697573027
0.8239996534572871
0.8882650835922902
0.9244728229442242
0.9469307633441203
0.963380127111614
0.9786872090929707
0.9957258453336727
1.0127568570178516
1.0289932276900615
1.0418703749315892
1.0516084403975927
1.0592188457414469
1.0657434372937562
1.0681838848314544
1.0700461959751701
1.0681441553223818
1.0666151825104477
1.0616620774748107
1.056372202618427
1.0487751251741944
1.0390842280741597
1.0284826736114008
1.0161684797786263
0.6060942961928765
0.7631567650047077
0.8452003915728051
0.8922385679186342
0.9236835326843289
0.9454001597825447
0.9669714698214904
0.9876524440104082
1.0084330309900205
1.0247727313737058
1.038380733585663
1.0489641411356685
1.0573435473998403
1.0624122623662755
1.0657584617350486
1.0657044517108603
1.0637816041976758
1.061513558426097
1.0565810294970772
1.0510214601803216
1.0438342725690946
1.0351264641411324
1.0240238206328853
1.0150942131842056
0.5618478745432326
0.7054869745633976
0.793844483646495
0.8514707247768261
0.8912493049337818
0.9208953371120685
0.9496877375074712
0.9758978028594157
1.0003728582147742
1.0195529531401784
1.0342398693038763
1.04645884232816
1.0527722205765861
1.0574018393304683
1.0607915652208595
1.059515246013793
1.0573404690272183
1.0545774830445849
1.0512843598233825
1.0467809117250402
1.0383458867332847
1.0296915303420806
1.0199553419383744
1.0072858024897482
0.5292993186442935
0.656970106063146
0.7452622517066597
0.8095331550732885
0.854542772462504
0.8941756932653642
0.9310396184452254
0.9627955364618257
0.9877550256406517
1.0099465671634014
1.0254477612581228
1.0365401578265863
1.0441747966031238
1.0479296157071596
1.0485050261065674
1.049750576105042
1.0485029392454375
1.046125373310171
1.04117218187819
1.0378983545343954
1.0324339087308958
1.0242396728767797
1.0129738153885766
1.0032018430188432
0.5031139589267114
0.6148379519922823
0.7037994396148373
0.770169572936787
0.8209416670391712
0.8675110900910197
0.9082444349532626
0.9456226782448625
0.9735068014457117
0.9984749108079303
1.0134168841749973
1.0249205305196238
1.0330213726540276
1.0363786653726013
1.0386220414547513
1.0394128491558055
1.0392793494666164
1.0373311465359736
1.0329667392239985
1.0284652636301814
1.0235861794108045
1.015424495580754
1.0072702355319945
0.9963686478721735
0.48231815944848844
0.5819404174379862
0.6662326490889908
0.7350911014337528
0.7923944183197751
0.8442815589836205
0.8910116542188184
0.9311018285051619
0.9632818960041651
0.9852125550778343
1.0012674123513663
1.0113407653549975
1.0191323084260466
1.0233377206446224
1.0270176021108914
1.0289647123886432
1.0265879033125513
1.0270752352378643
1.0240263336708415
1.0195037044574011
1.01512545392116
1.0082131917729213
1.0005893087185003
0.9915560717283053
0.46409682674842795
0.5558215621933632
0.6366471424532983
0.7059382707522185
0.7685677517155151
0.8271655065284241
0.8779530735449713
0.9207339538765043
0.9491026857400288
0.9710209916534711
0.9882469924289764
0.9984976570858225
1.0039295556353793
1.0111560689845331
1.0142743221700012
1.0172965355879837
1.0167748079467316
1.0173051225531322
1.015954225065829
1.0122325268020547
1.0067279298705796
1.0019385183782263
0.9934255288391952
0.9874317278991672
0.44867845168238835
0.5341755408431222
0.614165467749095
0.6840439387060891
0.7526937862808424
0.817353040219604
0.8705798516554808
0.9111296031785936
0.9406219308546667
0.9614792595897714
0.975115012817408
0.985899507449828
0.9928574243232333
1.0006396294452922
1.0030461720296766
1.006234224605506
1.006827533296438
1.0084988056300743
1.006567463131449
1.005863226543384
1.0036133615845442
0.9971037400969375
0.9891829935265092
0.982959784577154
0.4407091413262102
0.5209991358210635
0.5977655938581559
0.6702520617177001
0.7463842738297459
0.8138093010391304
0.8667470727575856
0.9055105330706811
0.9331875327388424
0.9526302169047074
0.9668564002104815
0.9753112145028258
0.9866668962017078
0.9923123381276535
0.994418323540434
0.9974827076079377
0.9998844505485263
0.9998237096025371
1.0006020364986536
1.0008801359002435
0.9986680968217883
0.9949743083999145
0.9879502603386684
0.9825928239046704
0.43788197174824467
0.5149824717309738
0.5919941594985918
0.6703858347724072
0.747769072757291
0.8161696649701927
0.866986234016439
0.9037264699298311
0.9278147997936939
0.9465584669626811
0.959575703407567
0.9700778786303957
0.9784803590293208
0.9855149275913626
0.989481658413955
0.9933305700187957
0.9946253077761116
0.9979349985724566
0.9983597277090238
0.9968693114688574
0.9962736244267041
0.9952220394644539
0.9899586615368269
0.9838762274117696
0.438281327898692
0.5161239662153134
0.5938336250784492
0.6788734628504607
0.7603839696347253
0.8251613228952407
0.8724728256458072
0.9028525837134781
0.9261708105989861
0.9435463012109373
0.9560881051973303
0.9658450363730544
0.9757426867033416
0.9821152953702378
0.9877013402119467
0.9915919962004444
0.9937239240699739
0.9956575753719594
0.9975127290865361
0.9986986296107625
0.9985214581564099
0.9984407394873764
0.9941470082855329
0.9898849845448481
0.44134591742340623
0.52018985660269
0.6035218684861506
0.6965975388821042
0.7762398740068328
0.8359886420714205
0.8784243370468581
0.9064119829874817
0.9272472226114549
0.9439219528627277
0.9575496825285065
0.9661320571284284
0.975083646140487
0.9808335684551568
0.9877431357569597
0.9918370821233184
0.9951433804350056
0.9974163712786216
0.9985765590864191
1.0026790159347732
1.002587564377448
1.004217387980427
1.0003566463620817
0.9960761287921642
0.4488993941049577
0.5283447671890887
0.6208504834637376
0.7176399637658751
0.7957445512759707
0.8484894363670521
0.8859732034794483
0.9139473061774874
0.9319497961857915
0.9462379051194404
0.9588006381013988
0.9685647860433884
0.9781007673546449
0.9850811091593146
0.9904750994063238
0.9932777808134811
0.9986442311584908
1.0047334611289775
1.0070890156946206
1.0112396181995202
1.012507695653277
1.010715539489949
1.0063662247141618
1.0025094924791793
0.4594943236287767
0.5435400326570073
0.6447313585009231
0.7434772923693036
0.8152992435929644
0.8616994636410905
0.8935690380890162
0.9181104042496361
0.9356045334237957
0.951033605182184
0.9654273553960315
0.9742585410896945
0.9834874725679239
0.98852739142708
0.996150181763856
1.003671837048638
1.0066695712257558
1.0118245636020602
1.0160318983609715
1.0195995606387556
1.0203579456573608
1.0205447363667197
1.0158044621863558
1.0098376843177757
0.47102149243257463
0.5649005303279071
0.676083831482741
0.7712968178861743
0.8328958747158741
0.8737215180486793
0.9028108894754027
0.9253735903122747
0.9439618307597142
0.957990833010723
0.9685472764368515
0.9808920209045007
0.9897098090582038
0.9969179458394954
1.0044935101552515
1.0104912090305438
1.0179521596917602
1.0229839135600332
1.0268394297919996
1.0301928940843068
1.031963602407249
1.0304907631985805
1.0238406156247437
1.017043274980338
0.48469751019943047
0.5949630555559947
0.7135212352224402
0.7982861984197447
0.850436374268967
0.8852010318745724
0.9111835297283924
0.9308263446568833
0.9488070338459906
0.9654704025281139
0.978135434357071
0.9875332063667647
0.997448124111324
1.0069591344523892
1.0157416355666733
1.0218758324630501
1.0277096079167716
1.0332780930187342
1.0385093982753888
1.0390283278315453
1.0410957759019874
1.0388215516188113
1.0304697175540867
1.0250824631668924
0.5014216649895015
0.6319949450015867
0.7532590023139545
0.8258752491713205
0.8698115390482121
0.89884448396124
0.9214806322537796
0.9409657903980964
0.9579485886891442
0.9712097509445249
0.9848379487775101
0.9953915315935843
1.0060130699597607
1.017335208586014
1.0260448842720253
1.0339845228546216
1.041319366672201
1.0454679965593294
1.0485963369984383
1.0508588934760201
1.0492012790616982
1.0455672474209283
1.0365339261500084
1.0305812520178432
0.5222888871763097
0.6775944107952557
0.7911804174325053
0.8526663177868924
0.8879357470078877
0.912264205446659
0.9325931357937715
0.9499911108044709
0.9659426467393057
0.9820592932754867
0.9941407996015852
1.0063893646828395
1.0179109898496912
1.0288928244539741
1.038326753450621
1.0456058744572354
1.0524914968424706
1.0566000449557604
1.0595793135428684
1.0589978206475215
1.0574731775010477
1.0504411912288152
1.0428330137244755
1.0336405789590262
0.5492196069256879
0.7292018804464332
0.8274940058355997
0.8756882262157305
0.9054495849642631
0.928191038326815
0.9446725087011246
0.9624667658069335
0.9763986489748268
0.9916340840696812
1.0038292070966173
1.0185276551299676
1.030361354013888
1.0404733879661885
1.0501969612181734
1.0582892074609824
1.064077285843299
1.0660671814670841
1.0678134595967506
1.0648408419565691
1.0620859709782533
1.0551102007014146
1.046241306386209
1.0341794903897426
0.5896916213276253
0.782174213614455
0.8603454024912872
0.898914986645022
0.9227636544337902
0.9431809073312495
0.9590985014424939
0.9748054762640549
0.9885387547432906
1.0017131394366041
1.0169573112429848
1.0312930775743905
1.0432082869795976
1.0543188570308408
1.0613393297686697
1.067742209411876
1.0726595979951306
1.0745300136150697
1.0744723961179015
1.0720756139477348
1.0666942400324222
1.0578002042075316
1.0463006884615915
1.0349399985803434
0.6480309839159725
0.8287247275743672
0.8903838176316899
0.9194312262778787
0.9428651665464269
0.9573780641526962
0.9750413421945024
0.9885653040713178
1.0033228674037726
1.0163219110642296
1.0293447016210477
1.0437069089302884
1.055658577142787
1.065760413571387
1.073260201767677
1.079570278268553
1.0807312317312097
1.081358770671712
1.0784096014327669
1.0756010614771119
1.068543258207213
1.0602439472174199
1.046149718792415
1.033328609564139
0.7304336135681411
0.8675823882857042
0.9130377859371966
0.9388930651983136
0.9586768237732889
0.9729210952383385
0.9900121820648456
1.004670308986388
1.0171789605637527
1.0321840338038861
1.0469103138291795
1.0580032236285102
1.0672670151558523
1.0767614991504704
1.0830604318673642
1.0867915939826498
1.0888105700776887
1.085314912326021
1.0823486156749558
1.0788451970548305
1.0687972306181472
1.0592860600626184
1.044918885709967
1.0307745241005786
0.8233870274623805
0.8963928796865587
0.9309950255990033
0.9551287579773541
0.9743077627092402
0.9900730924150511
1.004513608577557
1.0181192024800219
1.0310527122338977
1.0464979562268109
1.060647258793599
1.072993419093114
1.080430146044119
1.0869591080959269
1.0911779027318593
1.092909153110826
1.0935954967177524
1.088734053910408
1.0853331264565114
1.0770579494852501
1.0686021856570256
1.0569094107153405
1.0434702056936056
1.0272593834517905
0.08171649261189684
0.16799920483489664
0.2550167075350967
0.29783385758259223
0.3673663927746149
0.45080520151897213
0.11742932652415877
0.20231922109334777
0.27721998176538554
0.315469239944212
0.3755195400896045
0.4361436112156422
0.1349278656956544
0.21264108102842014
0.278545074821588
0.3163897185099477
0.3779815179658361
0.45048350648580476
0.1498094227235833
0.21896577085170438
0.27622513073059113
0.31486328434220323
0.3813137844382079
0.46426976036585504
0.1653111848168275
0.22355982611577147
0.2736355643653633
0.3134349779819264
0.3837391907652392
0.47323970840433965
0.17924205529957837
0.22777181912100664
0.2699467851560537
0.3111829621864723
0.3837536594297044
0.47434462767300206
0.19247129829445297
0.2301817227207276
0.26670882636119353
0.3094301633859357
0.38229176513050156
0.4730549505592483
0.20353874839997937
0.23187103347006094
0.2642767056404058
0.30781247394334654
0.3794095309371466
0.4696408330550678
0.21228504578499058
0.23300043020840294
0.26188523829928567
0.30593224751633846
0.37661779904843357
0.4625898254199507
0.21953532589102404
0.23422321332055213
0.25993918335055766
0.30348171684215464
0.37383038900237714
0.4583087728167508
0.22497324275939748
0.23502080149924212
0.2599256534895952
0.3021676281300353
0.3708815624721715
0.45479165698865615
0.22761185304852105
0.23553226073577369
0.2608658315831089
0.3028831189641911
0.370206264156246
0.4530572650542083
0.22752193262568396
0.2369104132651189
0.2629957722771482
0.30580364039258445
0.3724393713897146
0.4544636032760237
0.225305520854113
0.23713434429183508
0.26529811500593514
0.3096074473471473
0.37771116273644106
0.45868461347060147
0.2204153949335696
0.23651015088231797
0.2676764632932963
0.3139217901005973
0.38251886618871894
0.4640632371798096
0.21347071344320515
0.23651863416205784
0.2711191249222753
0.3184943498740753
0.38762697954048214
0.4688750928486355
0.20454638637129804
0.23595539305227545
0.2745507892191915
0.32185089960576446
0.3908124676657945
0.47411253522681374
0.19370398095372482
0.2343139609106137
0.27660865102941024