/*--------------------------------*- C++ -*----------------------------------*  =========                 |
  \      /  F ield         | OpenFOAM: The Open Source CFD Toolbox
   \    /   O peration     | Website:  https://openfoam.org
    \  /    A nd           | Version:  11
     \/     M anipulation  |
\*---------------------------------------------------------------------------*/
FoamFile
{
    format      ascii;
    class       volScalarField;
    object      U;
}
// * * * * * * * * * * * * * * * * * * * * * * * * * * * * * * * * * * * * * //

dimensions      [0 1 -1 0 0 0 0];

internalField   nonuniform List<scalar> 
2880
( 
0.07698427013810462
0.15307789823343315
0.23446947761305906
0.27668620415650697
0.34807165985333693
0.44335006855444964
0.10946385680029527
0.18535141508129793
0.2578353900207077
0.29689403422216176
0.35963515072458313
0.4276097152421802
0.12422921051871626
0.1952772715452898
0.2604845690546448
0.29960584786485783
0.36482766195804417
0.44373227998229636
0.13726797761783566
0.20202334932298505
0.2602092268575912
0.3001158680911134
0.37112754365325795
0.45837538129256095
0.15103530220770706
0.20758072525395257
0.2587543753445005
0.3010460553395985
0.37511819362756416
0.46808174291812304
0.1641821714612377
0.21161105449207154
0.2565625100735486
0.301427925742311
0.3772452563468146
0.47097390125243854
0.1764615987673496
0.21489544617957537
0.2548116347000344
0.30095078210077036
0.37752592690219144
0.4703093517148099
0.1866670113146727
0.21740242602269
0.25331459603729345
0.30041283950260717
0.3764274857366178
0.4672973712198245
0.19492610461857196
0.21868295674191376
0.2514591225315317
0.2994928568450249
0.37470975607378826
0.463091358711325
0.2013709506264655
0.219775539687903
0.2501846162975639
0.2982935061491895
0.373154797389978
0.45934251543226723
0.20623331134395737
0.22104652579718484
0.2504324935197373
0.2986767050900117
0.37152630267963727
0.45544029189951535
0.20807181749960324
0.22200350514665057
0.25225948348273636
0.29914328430112797
0.37066077995986535
0.45279221601659336
0.20872691825866702
0.22313084832514002
0.2541794658935128
0.30175242043421285
0.3718923984020631
0.45214307199307435
0.20636731289854607
0.22333641185449937
0.25643786592139756
0.30596574328540616
0.3755824058953692
0.4544849065599994
0.2022388920912762
0.22367710362258722
0.2587872587645652
0.3099568097338511
0.3801237928595316
0.45868644072525
0.19607405363959685
0.22285066847941085
0.26147613940906445
0.3130849787995783
0.38330996913325205
0.4626388862434912
0.18787609669523764
0.22237284335965876
0.26372270074278403
0.3158712236834825
0.386336613873606
0.4657549506586299
0.17838247112286973
0.22078516009528512
0.2655770865092235
0.31669177284961736
0.38775550250760654
0.46798336613393265
0.1659763504800662
0.2166827602105774
0.26714578896634184
0.3169458108200171
0.3877155878842606
0.46842217505602524
0.15150241101739575
0.21091224945969123
0.2671810855833809
0.3149423402338807
0.38524680280220497
0.46569844849772857
0.13542580467032206
0.20195738382313005
0.2660468713147126
0.3138578586778656
0.3811728156833393
0.45921737162891907
0.11928545385993253
0.19088834068095967
0.26302411867422304
0.3104568327159098
0.37653614668794305
0.44775647210354236
0.10150514833562513
0.17598426007367682
0.25475270886948875
0.30386970260433915
0.37458085835867344
0.43193388461302296
0.06748306100322175
0.140753554009299
0.22953877689137928
0.27725563727637903
0.37135442643942707
0.42231905752805493
0.8345498039098912
0.9128453032059577
0.9472389535660342
0.9668695051500892
0.9814583805583028
0.9914560467922829
0.9986030394920727
1.0147062177120638
1.033044081947502
1.0502147545188532
1.068824011298066
1.0838117429547431
1.095275645809834
1.1009598381050782
1.1026376596522707
1.1033636864403844
1.1008765731601415
1.0957736759204304
1.0889232992758868
1.0801822782682315
1.0681083098694655
1.0574106444408948
1.042675066295407
1.0242530661188036
0.7520945799920925
0.8931527409668416
0.9423825222920775
0.9686608324939143
0.9843280033170234
0.9969105897071788
1.011389196056014
1.0284661786514706
1.0498990767650707
1.0698121460420489
1.0879889444323942
1.1004292184921987
1.1079547348371257
1.1120857051468256
1.1134210817173216
1.1097314314652016
1.1065131823494394
1.1001478605461499
1.0915425708125217
1.0819461822221144
1.0687443111041777
1.056100961854578
1.0406600696065171
1.0221815142841744
0.6934537564272434
0.8568104616757896
0.9230997337627417
0.9612437929430442
0.9837758590979228
1.001704792713617
1.0215734559646872
1.044566573692905
1.0699558962305324
1.0892754758499201
1.104826797472167
1.1156325708648844
1.1203146845569616
1.1214196708926054
1.1193690881697216
1.1148835330027889
1.1091532395226256
1.0999622174078645
1.0926019790039927
1.0800071356202905
1.0701767988904192
1.0568325823118627
1.039746980369905
1.0215241673082573
0.6597297401223057
0.8173203560410484
0.8977858940054275
0.9444132637440993
0.975571949470377
1.0013904506275917
1.0321020481897853
1.0594383735783597
1.0834817721848131
1.1051206272449974
1.1179307384928254
1.125804855227328
1.1284393334701666
1.1274501887448396
1.123338747591177
1.1159754249967189
1.1108270688618158
1.1006984868727838
1.0907541621354873
1.081785972604892
1.0683540168225465
1.0557294274662314
1.0376735856992252
1.0196292115917165
0.6359187568388278
0.7813504309072457
0.8682339698485069
0.9239355224248853
0.9656848517350076
1.0005176248549015
1.0359250959591442
1.0688005707549364
1.0972938719601268
1.1171988621500966
1.1267821855384432
1.1324572123159797
1.133037564039709
1.1299610986189328
1.1248025802870554
1.1183649408185452
1.1110111521250876
1.1004478995599214
1.0909600195069893
1.0804450036556768
1.0685771628580776
1.0540139682260636
1.0363117682251006
1.0176231788617922
0.6168106954313927
0.7512095373285602
0.8416996194302502
0.9057053638588548
0.9541902456209509
0.9987472658319615
1.0412606721473987
1.0786387110853966
1.1045752593113545
1.1230422533916573
1.1311342539897253
1.1334793765907847
1.1319533313280625
1.1303384089275792
1.1229001833510088
1.1168404205664992
1.106261135325539
1.100388436145188
1.0895793149186428
1.0785576622228512
1.0649538046944615
1.0497844118322925
1.033563329704212
1.0166064909296837
0.6021100783223795
0.7258309932845357
0.8176577722974857
0.8878668639155046
0.9465144027843299
0.9981364407001393
1.0455572586555417
1.082385712298754
1.111904001434517
1.1251628556149005
1.131808303706968
1.133970013349314
1.131960022797091
1.1274215811164694
1.1204562995809884
1.112958285736946
1.1058036623583682
1.0969578272126586
1.0869519830083072
1.0761225105596357
1.0641149996976391
1.0499728757188898
1.0326682057863754
1.016128853297728
0.5868677385041396
0.7050681916517675
0.7993729435914408
0.8741768369374006
0.9407932088225637
1.0006740560147904
1.051998748744894
1.0892385904727078
1.1120461645592616
1.1259348890353658
1.130334801151313
1.1309502482635467
1.1277159774220546
1.1240575501557468
1.1173480586578777
1.1105300073863678
1.1052792224376002
1.0957930282323298
1.0862930306702254
1.0748227760126836
1.0617747828485649
1.0479094247561833
1.0329763906908664
1.0171915455410556
0.5750683686852749
0.690323924457931
0.7859861955211409
0.8666700392135748
0.9394001301201853
1.0064901963114532
1.0565470262056091
1.0878344441512622
1.109410778678381
1.121157421635576
1.1248504189509432
1.124425428314645
1.1220692875942408
1.1177248226417194
1.1139439958617334
1.1079474570424894
1.0989631322242046
1.0892733200175038
1.0821632749475212
1.0715324058949753
1.0619231260418411
1.0488823686203008
1.0329174004908548
1.015242993681944
0.5668025042342042
0.6799454171932686
0.7774170556139084
0.8636188515294874
0.9426790042297013
1.0098613795965266
1.0592505604858506
1.0890534990640874
1.1063451863369294
1.116238552082306
1.118593936074922
1.119011536259124
1.116507007935498
1.1129774449467662
1.10797690279468
1.101185349490916
1.0947224682471728
1.0892441345153254
1.078461200168085
1.0708428629273534
1.0600802177213047
1.047799459786881
1.0335062412626512
1.0170239030938537
0.5595638371798911
0.6732221882607555
0.7741871077347016
0.8678155899784972
0.9504006955196433
1.0166134837863423
1.059556372332535
1.0854058826854163
1.1009158748930328
1.1091476035868006
1.1119060465383563
1.1113118380883142
1.109664833351869
1.107307156078734
1.1020133970946455
1.0978829381777833
1.091404395718038
1.0858748774570108
1.0771577440302986
1.0686831767926679
1.0598487645518773
1.0490775507191032
1.0354626156065636
1.0202855147104888
0.5554026689738857
0.6717521856328026
0.7760828082831572
0.8752307010110053
0.9595718523499761
1.0207768063158322
1.0608892446204143
1.0837256928285146
1.0950073867769832
1.1007752182358244
1.1041209534979588
1.104077775638808
1.103257625827624
1.0996066299047378
1.0972359312733113
1.0913579343211024
1.086698153341393
1.0818712477614516
1.0758122232895881
1.0690692133247905
1.058633066301931
1.05010997738358
1.0375673857388772
1.0229822859297355
0.5550960003802135
0.6741326359877101
0.7831114797573959
0.8876330051438451
0.9703610100888187
1.0244960205471272
1.0597020999280369
1.0779294399615695
1.0894028519632404
1.0931740466111444
1.0973464071483963
1.0967700751210083
1.0965889145715044
1.0939693863187345
1.0916118644620847
1.0870878965297441
1.0830295090085058
1.0794362284350778
1.074927497474192
1.0684263854945988
1.0619216781896117
1.0515599691714317
1.0398358605466662
1.0253639287018452
0.5587588261146096
0.6795299040869408
0.7972646673959021
0.9029996888289402
0.9794728964312408
1.0293778947062084
1.0550607890469088
1.073594803425169
1.0824075707241465
1.0872434242843905
1.0915185524956768
1.090592415635611
1.0904107936707994
1.088125758628612
1.0868376503025456
1.0848829215458966
1.0803948090095201
1.076395410586708
1.0742090686458114
1.067891796140072
1.0613206837809457
1.0534898420784642
1.0407851251291154
1.0294542939659783
0.5644500018557433
0.6882229183842403
0.8134074688616358
0.9180790827032355
0.9860693388422858
1.0270613971528644
1.0517890254837075
1.0675285898544644
1.0749999787570725
1.0786932275890488
1.082418833758278
1.0844175526100852
1.0846344498931246
1.0852636554429422
1.0825139525701002
1.082243914356512
1.0784395802510072
1.077371483707458
1.0745435117221958
1.0700280073266826
1.064747872015415
1.055976364089219
1.0452507502060435
1.0324033077501815
0.5720324656801992
0.704966434413762
0.8369232177759856
0.9331846864519328
0.9936911633742596
1.0282001033821224
1.049028121196311
1.0604032251093627
1.070682965034079
1.074659103873283
1.0776527467502497
1.0787482418051983
1.080032592670216
1.078726696440433
1.080218230959416
1.0802151910238056
1.0784216614589088
1.0756814945803765
1.075087768621238
1.0696188677799792
1.0646180289530867
1.0569462633055007
1.0448287197325579
1.0331195473672095
0.5819209088473605
0.7283604487727781
0.8610534735320693
0.9476990619343612
0.9968679840060998
1.0255854496154775
1.0445285663139776
1.0575290311071368
1.064605092931172
1.0678482242329947
1.0711017922057804
1.0736196408701193
1.0766308499968003
1.0761064966047298
1.0765066581684792
1.0784498022585929
1.0784267183429146
1.076512153940101
1.0742181622063347
1.07066157558635
1.064419744087024
1.0569172163516918
1.0456767578393469
1.0319385613392158
0.593397960550355
0.7557461565987715
0.8856417527423335
0.9604592427792668
1.0008036111118523
1.0262493093333858
1.0412254148323437
1.0498714550238417
1.0577290787961833
1.0620447117620178
1.0653698826623914
1.0707507293013496
1.071818236101353
1.0733571300637563
1.0754538625307495
1.0776922903721031
1.0769754162444762
1.0760817163703105
1.0736144562599461
1.0723132205534769
1.0665108038333833
1.0572069378737643
1.0455302233251103
1.0328848024384252
0.6072647923773178
0.7890850260771197
0.9077560953406726
0.9671177888501902
1.0008116117549606
1.0200353218050129
1.0341740179196932
1.0448647334069558
1.0528533239547746
1.0556551492034316
1.0609700327609748
1.0654396800762578
1.0680466465572873
1.0713749495946165
1.0763200773212822
1.0769550458049326
1.0766710308451146
1.0768438135692586
1.0758134674253876
1.0720647905910186
1.066874620687699
1.057719159624461
1.0445722669494526
1.0301823133673835
0.6257920043239361
0.8244328534081059
0.9235673143776633
0.9730667101434136
1.0012036026308313
1.0169064067606657
1.028664565993265
1.0375859324754084
1.044387676958214
1.0495552876159628
1.0568469980758795
1.0600090467455194
1.0668686031032362
1.0712623057656958
1.074193930888633
1.0782674342254723
1.0768700022874926
1.0753542467086246
1.075542775292449
1.0696280788180685
1.064835996499233
1.0564052256120058
1.0441062377306967
1.0287896816144695
0.6546054577417768
0.8579598481852637
0.9352759118685302
0.9719069516311295
0.9961889455382645
1.0119061013181907
1.022955952212126
1.0299220075352236
1.0383315952939143
1.0452801022857219
1.0532153772317838
1.059356195546502
1.0648039255961923
1.070275968843793
1.0732061715474628
1.074010344548868
1.0763112379911726
1.075933698441983
1.0753589426939907
1.0683079901100174
1.064005416127556
1.0541807179585247
1.0418252076738734
1.0268345801725123
0.697871685633804
0.8821875397603958
0.9423339960774287
0.9724681750243954
0.9920121274860942
1.0049361009927789
1.0153720703018485
1.0235144825506548
1.0319086886819662
1.040256905119846
1.0500518977301703
1.0565150608837461
1.0628897196208804
1.0692191783248686
1.0719516920760834
1.0745461740006572
1.0776130986093704
1.0752858121074378
1.0737043123662116
1.068327544038092
1.0613704136812332
1.0520988660354338
1.0404440885531807
1.025758219015918
0.7582826705241736
0.8964138665608672
0.9416837911962671
0.9674441949525445
0.9857653966035548
0.995931496533735
1.0080612949171515
1.0161801555797862
1.0244209431391504
1.0363305726312795
1.0458990470035294
1.0554000186184394
1.0646201880741308
1.0685513505986575
1.070534741297172
1.0750282639866513
1.0740046012361109
1.0738165508534465
1.0706980206958985
1.065826145875171
1.0578295463021261
1.048293559262217
1.036329446754399
1.0239056561868625
0.8198059224266964
0.8976285419199119
0.9332832779119049
0.9588739252965854
0.976394404339909
0.9884814000698531
0.9981903028341829
1.0109979470581147
1.0218491065647712
1.0338750908186551
1.045422294735118
1.0536073344354757
1.0630726065095832
1.069094179540653
1.0709492088026484
1.074166155592518
1.0749212940506352
1.07179498308106
1.0686082107002037
1.0628577385920122
1.0561107776867158
1.0468818698956293
1.0356255444419984
1.0209386509815666
0.06602097163287761
0.13083918472660477
0.20848777406422217
0.2625497877927982
0.3288963729211605
0.447256318803752
0.0928321580873064
0.15929907455622738
0.23087336737703257
0.27891402227110995
0.3382761033490988
0.40679475939904436
0.10577104066140118
0.17064531706329472
0.23582425401230625
0.28102303395850203
0.3400012009038128
0.4062101245678354
0.1173879739565193
0.1793479305106604
0.23804081279505862
0.2807255681419708
0.3384880225601516
0.4080650972237704
0.12937455798926875
0.18631530774903696
0.23823635588882328
0.27941617344459824
0.33636583124278474
0.4043919425295921
0.14081486950458305
0.19163505615960183
0.2384370751026654
0.2783849454336672
0.3332701422810018
0.39869351786444207
0.15129205123334527
0.19546328510415192
0.2382073765728311
0.27666109624428764
0.3295909230743404
0.39119406835513465
0.1598429324510836
0.19826855537000365
0.23677387861643578
0.27453298081549055
0.32520960350720163
0.38338936404536816
0.1664949860623377
0.2003108448563383
0.23640854289863605
0.2736078863387746
0.3220515405394183
0.3770522930812995
0.17204282445604607
0.20160546781114602
0.23653543129531332
0.2730578684537721
0.3200845574467909
0.3732106023010548
0.17554361262274998
0.20282928673641873
0.23764990477413314
0.2738722411819334
0.32033642011314756
0.37228817240131573
0.17766900330639446
0.20383620657820054
0.23871628333020026
0.2761878794914275
0.3233288849732263
0.3741179437628891
0.17791081615533813
0.20454387947473643
0.2409248142631444
0.2802329720972906
0.3274523703693496
0.3784372951512284
0.1760444047143657
0.20496362470644297
0.24305035734841027
0.28442621658475326
0.33353881982116673
0.3854553649332326
0.17292018054043987
0.2041923853543644
0.24527428625398837
0.2887229197843963
0.34035292509131254
0.39285246818088704
0.16771649444534253
0.20319034467727842
0.24694782182730102
0.29335844880338624
0.3470509256239015
0.4011904290181995
0.16105885013747318
0.201128547424771
0.24797963711514678
0.2972246322790371
0.353682660799165
0.4102859290650479
0.15274002994838176
0.1983050041608438
0.2490038503301082
0.29927244945936493
0.3588159946380622
0.4185106401386047
0.14218159284992435
0.19387760229039744
0.2485885191219237
0.30058903553120436
0.3631591651544742
0.4251327652249415
0.12986851050063297
0.1869904981352602
0.24637710801099227
0.29948410089343025
0.3646751192341593
0.4308468472101351
0.11557671747890146
0.17690234705555322
0.2431934862222208
0.2969802361972238
0.3652013929020683
0.43354117701234496
0.10141969233844775
0.16488848190138514
0.23660685131803438
0.2921740795951663
0.3628879078243291
0.4329402467049143
0.08625967600819952
0.14978828198414118
0.22660214217260852
0.28330550373513785
0.35859104553281473
0.4296781430697329
0.0591473022511891
0.11836077222388684
0.19930203679094008
0.2574139820566273
0.3459538634982905
0.4384424956610634
0.787938056897483
0.874863720370594
0.9180428246432496
0.9458570399583607
0.9628952414120847
0.9784599490311965
0.9897938558560649
1.0026625264821778
1.0170110015636995
1.0315799006574666
1.045289544046724
1.0537616056276946
1.0608976008132027
1.0664806795513586
1.0736588524930974
1.0734686601813987
1.0720854821306287
1.0689473564094543
1.0662312157536509
1.0602127218748616
1.0540095460408327
1.0440345554339048
1.0328960789304398
1.0208636446814356
0.6780128361264073
0.8254959419293182
0.8895026936060996
0.925527443282342
0.9478713049117911
0.9642684804156925
0.9795697990201958
0.9966576587324483
1.0137286427486132
1.029991774557869
1.0429605612660522
1.0527381022264946
1.0603738637121047
1.0668325028557228
1.0692510573900218
1.071031624912339
1.0691112615874077
1.067472540402334
1.0624832647737674
1.0571298752640355
1.0494846607738573
1.0397522085694955
1.0290613419097854
1.0166553179017246
0.6079311591643035
0.765132146443112
0.8468990344624744
0.8937534379433678
0.9250305230705199
0.9466728120683284
0.9682399744841911
0.9889751871944531
1.009756674161875
1.0261667954182385
1.0398132768437762
1.0503915619622632
1.0587130445240343
1.0637224689454412
1.0669719964926243
1.066868471077676
1.064890429704957
1.0625241103394374
1.0575412378416325
1.0519206004416208
1.044663147083692
1.035869420039558
1.0246882487651838
1.0155493486305238
0.5638400159226435
0.707807548157122
0.7960280811363819
0.8534588702356807
0.8930667005037842
0.9226897864866193
0.9514173252954242
0.977645038234668
1.0020995937267243
1.021296784711573
1.035965354597392
1.048086405834683
1.0543712084124333
1.0589101044651792
1.0621672585458912
1.0608483719313235
1.0586114444284445
1.0557641714288966
1.0523573864457665
1.047730080482864
1.0392534502008124
1.0305327849846964
1.0206548628041112
1.007918984160579
0.5314637335855039
0.6595157283552322
0.7478409122325654
0.8119417391253118
0.8568951507665872
0.8964044306164596
0.9332043172659503
0.9649351614575257
0.9899369748246758
1.0120513115855716
1.0275027896887656
1.0384979863494166
1.0460107822902092
1.0496774952843488
1.0501989970974843
1.0512983723131666
1.0499429029524752
1.0474603096344604
1.0424575238394507
1.0390152093632083
1.0334227252944344
1.0251388038532778
1.0137915047807997
1.0038670844336657
0.5054182299314056
0.6175986537516743
0.7066278758723125
0.7729736694729927
0.8237157713360295
0.8702162851737214
0.9109479996165285
0.9482407826330984
0.9761233204243848
1.0009157949999772
1.0157853387047675
1.0271407069299712
1.0350718627545181
1.0383452140333076
1.0404633843828475
1.041129115729722
1.0408588599970412
1.03880406856943
1.0343702007670945
1.029757705483458
1.0247413200802549
1.016517844755888
1.008171357020033
0.9971739231306828
0.4846915017503993
0.5848458900687821
0.6693400730521946
0.7382515828110309
0.7955407656646154
0.8474130438580294
0.8941076800778353
0.9341092111741914
0.9661375548638512
0.9879543453174517
1.0038517641293059
1.0138077347654264
1.021438326717794
1.0255130164277897
1.029023852453945
1.030818700848087
1.0284012008368826
1.0286879969576745
1.0255368873249417
1.0209346081951778
1.0164201088603673
1.0093962797555034
1.0015900869698993
0.9924176799998167
0.46654056049743176
0.558821516602113
0.6399547474867466
0.7094084883495639
0.772062850480551
0.8306590158126561
0.8813804871160764
0.9240070023775697
0.9523310559027818
0.974072474478203
0.9910389351251491
1.001147533053132
1.006488497804774
1.013488075064602
1.016463917216287
1.019304191132082
1.018686277770476
1.019052291790778
1.017556417810554
1.0137446945357615
1.0081660500262235
1.0032285459559018
0.9945814291673638
0.9883439052396185
0.45118813960020115
0.537276885138457
0.6176314550049229
0.6877572144729178
0.7564739184474358
0.8210899402922879
0.874233082259676
0.9146737386687175
0.9439787244532931
0.9646378891773391
0.9781231207217824
0.9887234696638679
0.9955319748965689
1.0030687292713858
1.0053905215889904
1.0084107819974
1.008901318444735
1.0103725267146684
1.0083433910299415
1.0074435018977888
1.005031208257217
0.9984442962673763
0.9904033100487732
0.9839759735673331
0.44318279347367345
0.524144929641675
0.6013986594982075
0.6741579074731776
0.7503325945394029
0.817736820372474
0.8705937223120368
0.9092034495021086
0.9366618951255948
0.9559040392193091
0.969938865158007
0.9782865395910236
0.9893349191434326
0.99481938975157
0.9968682460502771
0.9997818600599914
1.0020125712909511
1.0018393640815273
1.0024468227179915
1.0025250739258267
1.0001588258930219
0.9963302598067297
0.9891769358524051
0.9836101777517744
0.4403048723831113
0.5181634329699611
0.595650148658245
0.6743107496106844
0.7518509997246571
0.8202023081028432
0.8708958170150246
0.9074298349319323
0.93135565542626
0.9498818096887421
0.962723239517234
0.9730382427652773
0.9812621534276817
0.9881008846130598
0.9919265325854792
0.9956265203149948
0.9968171573436461
0.9999113966043945
1.0002010701791115
0.9986034016302533
0.9978315966775604
0.9965759243009508
0.9911536929847538
0.98490892878708
0.4406417869942797
0.5192401263745771
0.5975049871816214
0.6828277867080467
0.7644051093693283
0.8291414285978106
0.8762879151122758
0.9065614530019948
0.9296815245267628
0.9468553807257518
0.9592312650470838
0.9688313891997034
0.9784942894419038
0.9847069575065427
0.9901338838912735
0.9938620144818698
0.9958688904462393
0.9976622684205321
0.9993505390277097
1.0003732813945216
1.000035839512983
0.9997431824377203
0.995279205321027
0.9908006277968562
0.44362573119815996
0.523257107509991
0.6071329872690124
0.700439613855966
0.7801765568334379
0.8398924538321422
0.8821515323499001
0.9099926596426497
0.9306661164776583
0.9471677081548886
0.9605761754697688
0.969047289678247
0.9778021942605515
0.9834321917546911
0.9901354733166078
0.9940893361754753
0.9972302597598303
0.9993576701154104
1.0004200544598214
1.004294767333076
1.004066789446144
1.0054397242927493
1.001406694946624
0.9969279843072746
0.45111244647433607
0.5313533100632514
0.6243544084515121
0.7213740496215055
0.7994974093595687
0.8522109697150008
0.8895307012511666
0.9172915223126473
0.9352008663473252
0.9493587691867481
0.9617536392544475
0.9713740804131354
0.9807223907141156
0.9875424448572369
0.9927789560383501
0.9954931744710002
1.0006732621560235
1.006545045899131
1.0087716378621423
1.0126985368054786
1.0137977633732365
1.011882826852379
1.0073751083814615
1.0032893716719702
0.46163002738099285
0.5464349787156432
0.6480998510186724
0.7469925014119202
0.8188139341494711
0.8651624790625176
0.8969485737185149
0.9213239344110641
0.938713795274455
0.9539878851573798
0.9681651489017983
0.9768838833574657
0.9859298658994021
0.9909113548913144
0.998334862585824
1.005644101202743
1.0085781574125197
1.0135499641784187
1.0175868370467493
1.0209658372208577
1.0215804113917901
1.0215607189207354
1.0166733052534067
1.0105439232337086
0.47310480684933104
0.5676975487772099
0.6792706912957758
0.77457119414541
0.8361620206780468
0.8769430355368614
0.9059134474243749
0.9283477512085949
0.9467795790778658
0.9606953708904997
0.9711748400541397
0.9833324386367831
0.992022911876941
0.9990998551340327
1.0065090450495144
1.0123751613210275
1.019647325341776
1.0245417138894026
1.0282382629201798
1.0314073761316689
1.0329789872647175
1.031355602249998
1.0246186676932671
1.017667561181231
0.486693759269588
0.5976015596239765
0.7164860269188401
0.8012978654711623
0.8534450499588654
0.888151172779501
0.9140507590190227
0.9336350335043196
0.951463917858812
0.9679440865188398
0.9804777330419445
0.9897872489393
0.9995539786646533
1.0089036121148351
1.0175483574381885
1.023573523091075
1.0292775602408322
1.0346915410461397
1.0397290253596518
1.0401595375667205
1.042014002127952
1.0395846820105297
1.0311849535126034
1.025575284941974
0.5032985131539839
0.6344834144426583
0.75592057398397
0.8285678008286136
0.872482969452662
0.901476334572028
0.9240342073465313
0.9434489573770961
0.9603117825113217
0.9734987316494486
0.9869925995287054
0.9974496650483167
1.0079464380626917
1.0190798900970626
1.0276706374113431
1.035475484142984
1.0426573102998051
1.0466920872182588
1.0496862911804037
1.051795661398103
1.0500194033201957
1.0462724950385784
1.0371905777108228
1.031003343884718
0.5240420840183361
0.6798704918797118
0.7935341647110249
0.8550102654367934
0.890269422577052
0.9146018782921153
0.9348482855754813
0.9521846265950741
0.9680568376927854
0.9840115992283156
0.9960266322220269
1.0081623820695835
1.0195849469349028
1.0304330379397952
1.0397197942518803
1.0468727638042041
1.0536475081884957
1.0576410930639484
1.0604875180940763
1.059828925031277
1.0581700290539715
1.0511196210754494
1.0433761867120175
1.0340327190291574
0.5508443061478087
0.7311961095185444
0.8295046187237439
0.8777242488179458
0.9074687449291268
0.9301402155023766
0.9466467029532276
0.9643213313654533
0.9782054351643285
0.9933283969984216
1.0054770973101412
1.0200143754269992
1.0317351091213545
1.0417867371107676
1.0513725171243384
1.05933135046825
1.0649951925425343
1.0669557609014146
1.06858644867735
1.0656113079882326
1.0627383036363218
1.0557096094562206
1.04673557368882
1.034616297733857
0.5910902247881783
0.7838030805863719
0.8619986720708109
0.9005539719010035
0.9244511469908415
0.944801231367006
0.9607156071838279
0.9763581704174845
0.9900399127996303
1.0031200861941538
1.0182680555550299
1.0324879162051785
1.0443200160130366
1.055290842864445
1.0622826871760223
1.0686242385941414
1.073443923339617
1.0752505901724043
1.0751295251186275
1.0726624281513795
1.067241676680158
1.0583451485627335
1.0468265447246874
1.0353452243011072
0.6492312149205399
0.8300012830024257
0.8915993555166432
0.9207294011731764
0.9440840195807967
0.9587047281288941
0.9762568197846361
0.9897819324705472
1.0044646274029418
1.0174313517369817
1.030389456709503
1.0446189156759431
1.0565068767336063
1.0665240096208253
1.0739490291198481
1.0801701340600962
1.081339932760244
1.0819241358741765
1.0789803472218282
1.076095918480838
1.0690378789618842
1.0606941973574575
1.0466460947368592
1.0337621366124248
0.7312372111490913
0.8684339031746351
0.9138804060440554
0.9397818248530276
0.9595552795133634
0.9738971118511435
0.9908987179124606
1.0054846300287723
1.0179931772951318
1.032930681109646
1.0475670724209516
1.0586218561322625
1.0678652123244579
1.0772893638808783
1.0835479420556886
1.0872360119636046
1.0891999713455642
1.0857873456227987
1.0827916285763994
1.0792086865207162
1.069249957491241
1.0597206374399137
1.0454079153985558
1.0312291290742592
0.8236383901806024
0.8967160239476494
0.9314203316827132
0.9556169553836953
0.9748327922729841
0.9906017428699293
1.005060210070679
1.0186382293396872
1.031599930563316
1.0469693920719998
1.061057035460909
1.0733302508697933
1.0807654069397785
1.087261909258045
1.0914695853175862
1.0932003113021944
1.0938463011791852
1.089069449720659
1.08563389771197
1.077430693209944
1.0689866705086961
1.0573449100896748
1.0439114814695172
1.0277152442792232
0.0815017973010813
0.16748486960862205
0.25440279172063357
0.2974270040628402
0.36693507791251356
0.45095131652757486
0.1170694895007507
0.20171844379540574
0.2766020468901903
0.3150415867836893
0.3750833967999794
0.4358132453784194
0.13450287941516223
0.21205022974464816
0.277972291838182
0.31595494980487554
0.37749644966896884
0.4498630383108016
0.1493469467368288
0.21841067176456502
0.2757271741970296
0.3144180060945336
0.38073416531450655
0.4633994908011354
0.16479333687582798
0.22305801858022453
0.27318202804147784
0.31298223708426515
0.38304560482502853
0.4721309865306257
0.1787019548285743
0.22728717413026994
0.26954035896894335
0.31073705214517394
0.38298167670440614
0.47312638001560936
0.19188131498989258
0.22971972017727182
0.2663419330509299
0.3089654037563131
0.3814529768995043
0.4717031465977637
0.20290416815587028
0.23141746147295966
0.2639271241234165
0.3073280324214438
0.37853876394250435
0.46818160237213385
0.21162936039466243
0.23255108122495974
0.261547731120416
0.30543384732736123
0.37571191492189715
0.46113816565255733
0.21884923316756716
0.2337675017554502
0.25960644536353233
0.30300814272537724
0.37290475085876346
0.4568237840746242
0.22425300474635332
0.2345684101661912
0.2596027680033158
0.30172476373362894
0.3700205097358523
0.45337509469002324
0.22688107122506385
0.23509612712254285
0.26055544661503943
0.30246049137740594
0.36939209572017534
0.4517062149536321
0.22680752895398823
0.23644928735869047
0.26268295258653185
0.3053939659495939
0.371672530201062
0.4531853832993955
0.22459979847815864
0.23667789245376053
0.26498894134227674
0.3092283698278162
0.3769770002548004
0.45747912439449184
0.21973206382782703
0.23607373608007798
0.2673780509098133
0.3135653278949913
0.3818440451919746
0.4629325676836979
0.21281319480367794
0.23606355817064242
0.2707984157019599
0.31813727653595875
0.38699998964339005
0.4678499508941304
0.20392222026276563
0.23548134020296232
0.2742013240342122
0.32150891599898257
0.3902772393830207
0.4731610417931121
0.19311220254451367
0.23382353335868686
0.2762493384048906