/*--------------------------------*- C++ -*----------------------------------*\
  =========                 |
  \\      /  F ield         | OpenFOAM: The Open Source CFD Toolbox
   \\    /   O peration     | Website:  https://openfoam.org
    \\  /    A nd           | Version:  11
     \\/     M anipulation  |
\*---------------------------------------------------------------------------*/
FoamFile
{
    format      ascii;
    class       volScalarField;
    location    "1.44";
    object      k;
}
// * * * * * * * * * * * * * * * * * * * * * * * * * * * * * * * * * * * * * //

dimensions      [0 2 -2 0 0 0 0];

internalField   nonuniform List<scalar> 
2880
(
0.00337206
0.00765974
0.0165782
0.0282278
0.0452513
0.0770325
0.01457
0.0222795
0.0348878
0.0485609
0.066835
0.093921
0.0187891
0.0305017
0.0447721
0.0595727
0.0772756
0.0997114
0.0211312
0.0359347
0.0513487
0.0668674
0.0837082
0.102259
0.0229709
0.0400749
0.0563323
0.072241
0.0882285
0.103868
0.024223
0.0434424
0.0603137
0.0764006
0.0916715
0.105278
0.0249395
0.0462994
0.0635496
0.0796938
0.0944242
0.106755
0.0251926
0.0486653
0.0661627
0.0823098
0.0966795
0.108337
0.0255647
0.0505174
0.0682169
0.0843556
0.0985333
0.109978
0.0259327
0.0518794
0.0697514
0.0858916
0.100026
0.111601
0.0261971
0.0527701
0.0707893
0.0869468
0.101157
0.113119
0.02631
0.0532001
0.0713425
0.0875278
0.101898
0.114422
0.0262388
0.0531733
0.0714135
0.0876231
0.102196
0.115385
0.0259813
0.0526785
0.0709949
0.0872065
0.10198
0.115862
0.0256115
0.0516958
0.0700693
0.086239
0.101162
0.115686
0.0251905
0.0502172
0.0686092
0.0846725
0.0996522
0.114684
0.0249665
0.0482455
0.0665815
0.0824525
0.0973595
0.112685
0.024992
0.0458177
0.0639541
0.0795218
0.0941955
0.109535
0.0245614
0.043061
0.0606939
0.0758127
0.0900718
0.105094
0.0236299
0.0399459
0.0567201
0.0712179
0.0848987
0.0992838
0.0221562
0.0362614
0.0518143
0.0655134
0.0784675
0.0919788
0.0201595
0.0315514
0.0454169
0.0581405
0.0701488
0.082978
0.0162922
0.0243663
0.0358222
0.0474164
0.0579044
0.071185
0.00419337
0.00877156
0.0161653
0.0260743
0.0344894
0.0479336
0.143419
0.168079
0.182547
0.193964
0.201755
0.204746
0.203426
0.198598
0.190587
0.180749
0.170092
0.159079
0.148074
0.13736
0.127134
0.117516
0.108571
0.100319
0.0927673
0.0858804
0.0796825
0.0739917
0.0693222
0.0639556
0.125551
0.141193
0.153408
0.164728
0.173875
0.179644
0.182012
0.181445
0.178538
0.173574
0.167422
0.160635
0.153637
0.146614
0.139825
0.133427
0.127519
0.122159
0.117372
0.113147
0.109461
0.106224
0.103594
0.100994
0.118012
0.127107
0.136187
0.145422
0.153645
0.159764
0.1636
0.165343
0.165301
0.164045
0.161696
0.15888
0.155922
0.153178
0.150686
0.148617
0.147098
0.146186
0.145901
0.146127
0.146799
0.147775
0.148921
0.150241
0.114921
0.120933
0.1281
0.135607
0.142323
0.147537
0.151204
0.153545
0.15488
0.155502
0.155667
0.155693
0.155781
0.156095
0.156982
0.158403
0.16033
0.162699
0.165388
0.168212
0.170935
0.173321
0.175195
0.176514
0.113964
0.119038
0.125433
0.132079
0.137867
0.142326
0.145522
0.147721
0.149245
0.150395
0.151433
0.152588
0.154022
0.155821
0.157995
0.160588
0.16352
0.166681
0.169936
0.173088
0.175899
0.178129
0.179607
0.18043
0.114247
0.119441
0.125704
0.132027
0.137459
0.141599
0.144537
0.146555
0.147981
0.149118
0.150219
0.151469
0.152981
0.154794
0.156891
0.159191
0.161653
0.164183
0.166648
0.168914
0.170745
0.171928
0.17236
0.172351
0.115471
0.121518
0.128323
0.13496
0.140566
0.144814
0.147811
0.14984
0.151216
0.152221
0.153083
0.153964
0.154959
0.156109
0.157406
0.15881
0.160213
0.161483
0.162488
0.163107
0.163359
0.163266
0.162895
0.162491
0.117342
0.124691
0.132579
0.140109
0.146472
0.15138
0.154946
0.157435
0.159137
0.160305
0.161131
0.16175
0.162245
0.162654
0.162986
0.163221
0.163321
0.163253
0.163002
0.162578
0.161985
0.161317
0.160756
0.160389
0.119661
0.128653
0.138084
0.147
0.154599
0.160618
0.165173
0.168521
0.170937
0.172648
0.173827
0.17459
0.17501
0.175134
0.175001
0.174597
0.173897
0.172885
0.171572
0.170001
0.168289
0.166688
0.165618
0.165125
0.12227
0.133205
0.144566
0.155236
0.16438
0.17176
0.177519
0.181925
0.18527
0.187765
0.189565
0.190782
0.191495
0.191794
0.191694
0.191227
0.19026
0.188788
0.186824
0.184383
0.181503
0.178307
0.175264
0.172898
0.125023
0.138163
0.151737
0.164328
0.175051
0.183729
0.190551
0.195837
0.199967
0.203068
0.205314
0.206827
0.20766
0.20776
0.207203
0.206014
0.204064
0.201375
0.197956
0.193795
0.188977
0.183837
0.178959
0.174804
0.127758
0.14332
0.159207
0.173581
0.185531
0.195027
0.202287
0.207662
0.211279
0.213629
0.214983
0.21546
0.215204
0.214446
0.213005
0.21083
0.207937
0.204286
0.199855
0.194627
0.188645
0.181881
0.174932
0.167409
0.130286
0.148398
0.166421
0.182024
0.194336
0.203134
0.209019
0.21279
0.215227
0.216509
0.216794
0.216186
0.214857
0.212627
0.209467
0.205465
0.200596
0.194854
0.188236
0.180742
0.172484
0.163291
0.1542
0.142827
0.132392
0.15304
0.172611
0.188125
0.198693
0.205726
0.210076
0.212176
0.212387
0.211172
0.208869
0.205433
0.201105
0.195944
0.189974
0.183204
0.175644
0.167314
0.15824
0.148475
0.138255
0.127381
0.117341
0.104632
0.133835
0.156797
0.176533
0.190079
0.198673
0.202919
0.203752
0.202118
0.198749
0.193778
0.18779
0.180966
0.173436
0.165275
0.156537
0.147234
0.137428
0.127213
0.116768
0.106318
0.0961747
0.0863025
0.0775743
0.0694587
0.134323
0.159204
0.177282
0.187894
0.192212
0.191832
0.18858
0.182513
0.174916
0.166338
0.157109
0.147455
0.137516
0.12737
0.117075
0.10678
0.0967326
0.0871982
0.0782615
0.0703139
0.0636125
0.0586321
0.0552007
0.0534185
0.133643
0.159679
0.174305
0.179678
0.178826
0.174376
0.166143
0.156329
0.145687
0.134704
0.123713
0.112929
0.102436
0.0923638
0.0829539
0.0744426
0.0669754
0.0606137
0.055571
0.0516756
0.0488334
0.047048
0.0463189
0.0467873
0.131574
0.158364
0.166747
0.166547
0.162182
0.15288
0.141582
0.129656
0.117757
0.106299
0.0955479
0.0855943
0.0765753
0.0686696
0.0619363
0.0563321
0.0517578
0.0481152
0.0453205
0.0433212
0.0421363
0.0418175
0.0421778
0.0436068
0.127967
0.154963
0.156456
0.153576
0.145167
0.133048
0.120308
0.1079
0.0963168
0.0858243
0.0764985
0.0683874
0.0615211
0.0557955
0.0510535
0.0471556
0.0439949
0.0415071
0.0396768
0.0385522
0.0381955
0.0384185
0.0392456
0.0412911
0.123745
0.150727
0.149433
0.143971
0.131808
0.117984
0.104657
0.0925226
0.0818084
0.072527
0.0646055
0.0579361
0.052344
0.047661
0.0437632
0.0405681
0.0380293
0.0361374
0.034922
0.0344399
0.034583
0.0352119
0.0365881
0.0390001
0.12166
0.148694
0.147034
0.138054
0.122145
0.106833
0.0932194
0.0814859
0.0715184
0.0631141
0.0560617
0.050152
0.0452186
0.0411419
0.0378351
0.0352294
0.0332804
0.0319747
0.0313225
0.0313216
0.0317362
0.0327544
0.0344303
0.0368331
0.125302
0.149514
0.14713
0.132886
0.113939
0.0975887
0.0839389
0.07263
0.063259
0.0554881
0.0490542
0.0437558
0.0394423
0.0359859
0.0332724
0.0312116
0.0297464
0.0288547
0.0285403
0.0287043
0.0293221
0.0304976
0.0321993
0.0344749
0.139463
0.158994
0.149181
0.126468
0.105767
0.0891449
0.0758214
0.0650398
0.0562532
0.0490865
0.0432689
0.0385899
0.0348681
0.0319444
0.0296903
0.0280136
0.0268603
0.0262102
0.026066
0.0263176
0.0270235
0.0281953
0.0298317
0.0319287
0.164191
0.171913
0.148575
0.11939
0.0978218
0.0814414
0.0686423
0.0584473
0.0502682
0.0437189
0.0385096
0.0343982
0.0311785
0.0286819
0.026779
0.0253802
0.0244332
0.0239169
0.0238309
0.0240923
0.024767
0.0258454
0.0273439
0.0292395
0.00549067
0.0281351
0.0721732
0.119735
0.152377
0.154704
0.0174197
0.055638
0.105368
0.15618
0.204661
0.242234
0.0253009
0.0723775
0.123372
0.176009
0.223318
0.248252
0.0308103
0.0828517
0.134024
0.185446
0.225891
0.236842
0.0350551
0.0899732
0.140426
0.188766
0.221384
0.220918
0.0383135
0.0948816
0.144029
0.188753
0.213523
0.206196
0.0407559
0.0981304
0.145681
0.186797
0.205226
0.193471
0.0424969
0.100021
0.145905
0.183934
0.19777
0.183123
0.0436184
0.100724
0.145086
0.180753
0.191566
0.175029
0.0441787
0.100337
0.143421
0.177528
0.18659
0.169098
0.0442175
0.0988942
0.140991
0.17436
0.18263
0.16502
0.043768
0.0964289
0.1378
0.171217
0.179428
0.162534
0.0428849
0.0929594
0.133807
0.16798
0.176877
0.161298
0.0416953
0.0885049
0.128943
0.164482
0.174807
0.16117
0.040177
0.083145
0.123124
0.16048
0.172994
0.16186
0.038316
0.0769616
0.116262
0.155625
0.171189
0.163354
0.0360988
0.0700457
0.108283
0.149411
0.169074
0.165383
0.0334851
0.0624996
0.0991484
0.141124
0.166251
0.167621
0.0303152
0.0544459
0.0887967
0.12992
0.162043
0.169625
0.0260158
0.0460991
0.077251
0.115431
0.154546
0.170693
0.0237261
0.0381334
0.0647355
0.097684
0.141382
0.170757
0.0217007
0.0308043
0.0515469
0.0766816
0.11853
0.165549
0.0177969
0.0225884
0.0367014
0.0529828
0.0828385
0.142415
0.00509608
0.00778471
0.0145839
0.0242002
0.0416942
0.121235
0.206172
0.179189
0.139998
0.111057
0.0900762
0.0743874
0.0622505
0.0526939
0.0451481
0.0392165
0.0345806
0.030974
0.0281781
0.0260211
0.0243765
0.0231592
0.0223204
0.0218413
0.0217234
0.0219244
0.0224792
0.0234008
0.0247173
0.0264045
0.226592
0.175152
0.131856
0.102963
0.0828693
0.0680082
0.0565836
0.047695
0.0407906
0.0354514
0.0313323
0.0281523
0.0256913
0.0237843
0.0223133
0.0211999
0.0203991
0.0198935
0.0196859
0.0197715
0.0201479
0.0208652
0.0219674
0.023445
0.221349
0.161909
0.121443
0.0949426
0.0762756
0.0623067
0.0516024
0.043384
0.0370984
0.0322978
0.0286201
0.025784
0.0235792
0.0218525
0.0204956
0.0194358
0.0186296
0.0180584
0.0177246
0.0176433
0.0178103
0.0182752
0.0191326
0.0203983
0.20353
0.148648
0.11234
0.0880176
0.0704597
0.0572605
0.047252
0.0396843
0.0339709
0.0296401
0.0263276
0.0237635
0.0217524
0.0201544
0.0188707
0.0178328
0.0169969
0.0163409
0.0158623
0.0155755
0.0155047
0.0156829
0.0162435
0.0172828
0.18499
0.136818
0.104465
0.0818904
0.06527
0.0528075
0.0434805
0.0365237
0.0313182
0.0273835
0.024366
0.0220135
0.0201476
0.0186417
0.0174051
0.0163728
0.0154997
0.0147576
0.0141353
0.0136387
0.0132902
0.013147
0.0133527
0.0141107
0.169094
0.127306
0.0978878
0.0765566
0.0607047
0.0489254
0.0402359
0.0338285
0.0290587
0.0254501
0.0226675
0.0204788
0.0187228
0.0172847
0.0160813
0.0150508
0.0141466
0.0133345
0.0125919
0.0119093
0.0112942
0.0107918
0.0105548
0.0109014
0.157178
0.119951
0.0923943
0.0719132
0.0567118
0.045565
0.0374569
0.0315293
0.0271244
0.0237797
0.0211825
0.0191213
0.0174502
0.0160653
0.01489
0.0138661
0.0129474
0.0120961
0.0112804
0.0104738
0.00965836
0.00884309
0.00805167
0.00704438
0.148608
0.114243
0.0877854
0.067893
0.0532532
0.04268
0.0350858
0.0295656
0.0254596
0.0223256
0.0198741
0.0179128
0.0163095
0.0149696
0.013823
0.0128158
0.0119045
0.0110525
0.0102271
0.00939594
0.00852312
0.00757765
0.00656287
0.00525007
0.142584
0.109817
0.0839366
0.0644465
0.0502877
0.040221
0.0330683
0.027886
0.0240203
0.021052
0.0187141
0.0168313
0.0152832
0.0139834
0.0128676
0.0118862
0.0109996
0.0101753
0.0093853
0.0086026
0.00779699
0.00694118
0.00602933
0.00492767
0.13837
0.106431
0.0807672
0.0615331
0.0477746
0.038141
0.0313571
0.0264481
0.0227714
0.019931
0.0176803
0.0158586
0.0143555
0.0130912
0.0120061
0.0110542
0.0101989
0.00941083
0.0086651
0.00793818
0.00720372
0.00644085
0.00565508
0.0047586
0.135628
0.103945
0.0782263
0.0591168
0.045674
0.0363977
0.0299124
0.0252182
0.0216858
0.018941
0.0167553
0.0149802
0.0135132
0.0122796
0.0112234
0.010301
0.00947826
0.00872763
0.00802648
0.00735384
0.00668683
0.00601012
0.00533502
0.00460183
0.134124
0.102281
0.0762809
0.0571662
0.0439502
0.0349549
0.0287017
0.0241693
0.0207422
0.0180655
0.0159259
0.0141851
0.0127463
0.0115389
0.0105091
0.00961543
0.00882498
0.00811173
0.00745465
0.00683477
0.00623219
0.00563579
0.00505884
0.00445924
0.133729
0.101408
0.0749137
0.0556556
0.0425725
0.0337825
0.0276984
0.0232802
0.0199241
0.0172916
0.0151821
0.0134648
0.0120475
0.0108622
0.00985674
0.00899064
0.00823206
0.00755593
0.00694239
0.00637397
0.0058331
0.00531135
0.00482146
0.00433322
0.134409
0.101326
0.0741182
0.0545631
0.0415144
0.0328546
0.026881
0.0225338
0.0192184
0.0166094
0.014516
0.012813
0.0114116
0.0102449
0.00926174
0.00842227
0.00769513
0.00705587
0.00648532
0.005967
0.00548491
0.00503201
0.00461893
0.0042238
0.136154
0.102059
0.0738926
0.0538722
0.0407535
0.0321501
0.0262319
0.0219167
0.018615
0.0160111
0.0139215
0.012225
0.0108343
0.00968319
0.00872072
0.00790703
0.00721094
0.00660823
0.00608002
0.00561027
0.0051838
0.00479382
0.00444797
0.0041303
0.139004
0.103655
0.0742022
0.0535636
0.0402726
0.0316521
0.0257371
0.021418
0.0181056
0.0154904
0.0133938
0.0116969
0.0103124
0.00917424
0.00823085
0.00744209
0.00677658
0.00620997
0.00572326
0.00530029
0.00492599
0.00459289
0.00430529
0.00405146
0.143024
0.106198
0.0752124
0.0536132
0.0400559
0.0313469
0.0253851
0.0210287
0.0176835
0.0150422
0.012929
0.0112253
0.00984318
0.00871541
0.00778957
0.00702482
0.00638926
0.0058581
0.00541176
0.00503345
0.00470752
0.00442523
0.0041875
0.00398575
0.148293
0.109787
0.076822
0.0540053
0.0400805
0.031221
0.0251658
0.0207412
0.0173429
0.0146622
0.0125237
0.0108075
0.00942408
0.00830435
0.00739452
0.00665271
0.00604625
0.00554956
0.00514211
0.00480592
0.0045243
0.00428679
0.00409128
0.00393164
0.154915
0.114549
0.0791089
0.0548765
0.0402842
0.0312507
0.0250691
0.0205482
0.0170785
0.0143466
0.0121748
0.010441
0.00905289
0.00793888
0.0070434
0.00632327
0.00574477
0.00528123
0.00491073
0.00461372
0.0043721
0.0041736
0.00401354
0.00388764
0.162992
0.120636
0.0820756
0.056096
0.0407395
0.0314035
0.025082
0.0204428
0.0168856
0.0140918
0.0118798
0.0101237
0.00872758
0.00761695
0.00673403
0.00603408
0.00548207
0.00504992
0.00471395
0.00445278
0.00424677
0.00408194
0.0039515
0.00385247
0.172601
0.128218
0.0857029
0.0576558
0.0414221
0.0316845
0.0251806
0.0204181
0.0167594
0.0138948
0.0116364
0.00985365
0.00844635
0.00733664
0.00646428
0.00578272
0.00525538
0.00485242
0.00454812
0.0043191
0.0041443
0.00400837
0.00390275
0.003825
0.183944
0.13744
0.0898851
0.059479
0.0422639
0.0321068
0.025365
0.0204606
0.0166954
0.0137531
0.0114429
0.00962939
0.00820771
0.00709627
0.00623214
0.00556682
0.00506193
0.00468558
0.0044097
0.00420888
0.00406087
0.00394952
0.00386499
0.0038041
0.198255
0.148172
0.0941888
0.0613389
0.0432017
0.0326244
0.0256236
0.0205651
0.0166921
0.013665
0.0112983
0.00945013
0.00801074
0.00689457
0.0060359
0.00538413
0.00489897
0.00454622
0.00429528
0.00411863
0.00399302
0.00390203
0.00383569
0.00378817
0.216632
0.158391
0.0977484
0.0630901
0.0441806
0.0332097
0.025958
0.0207283
0.0167396
0.0136294
0.0112024
0.00931603
0.0078554
0.00673106
0.00587448
0.00523298
0.00476421
0.0044316
0.00420196
0.00404575
0.00393873
0.00386414
0.00381219
0.00377567
0.00678173
0.0319618
0.077971
0.118689
0.13808
0.129222
0.0212682
0.0607555
0.104327
0.143542
0.175652
0.215604
0.0307934
0.0815683
0.123393
0.16082
0.194249
0.224921
0.0382284
0.0955661
0.136459
0.172223
0.202657
0.223586
0.0444165
0.105749
0.146061
0.180229
0.206772
0.220785
0.049544
0.113414
0.153392
0.186273
0.209174
0.218496
0.0537387
0.119254
0.159097
0.190987
0.211122
0.217274
0.0570939
0.123669
0.16357
0.194821
0.213168
0.217266
0.0596758
0.126896
0.167059
0.198071
0.215574
0.218497
0.061529
0.129076
0.16972
0.200918
0.218471
0.221037
0.062679
0.130285
0.171636
0.203457
0.221896
0.224858
0.0631475
0.130544
0.17283
0.205709
0.225812
0.229947
0.0631014
0.129817
0.173269
0.207626
0.230113
0.236279
0.0626086
0.128056
0.172865
0.209097
0.234618
0.243794
0.061594
0.125234
0.171479
0.209935
0.239069
0.252365
0.0599704
0.121294
0.168923
0.209833
0.2432
0.261723
0.0576456
0.11616
0.164977
0.208377
0.246521
0.271539
0.0545188
0.10976
0.159409
0.205113
0.248351
0.281306
0.0504769
0.102046
0.151995
0.199499
0.247845
0.290289
0.0453931
0.0929779
0.142495
0.190875
0.243693
0.297415
0.0391504
0.082442
0.130535
0.178336
0.233961
0.300968
0.0316747
0.0699681
0.11522
0.160433
0.215924
0.298019
0.0224027
0.0535226
0.0937695
0.13417
0.185068
0.276772
0.0066675
0.0229669
0.0539696
0.089492
0.138996
0.168
0.233569
0.16442
0.100319
0.0646255
0.0451593
0.0338416
0.0263516
0.0209446
0.0168394
0.013646
0.0111567
0.00922841
0.00774266
0.00660622
0.00574779
0.00511257
0.0046562
0.00433971
0.00412743
0.00398794
0.00389611
0.0038348
0.00379397
0.0037665
0.237874
0.165293
0.101849
0.0659257
0.0461182
0.0345097
0.0268013
0.0212263
0.0169919
0.0137128
0.0111631
0.0091896
0.00767432
0.00652124
0.00565636
0.00502277
0.00457413
0.0042692
0.00406998
0.00394333
0.00386337
0.00381255
0.00378047
0.00376022
0.230215
0.162072
0.102383
0.067027
0.0470588
0.0352151
0.0273093
0.0215746
0.0172105
0.013833
0.0112188
0.00920065
0.00765254
0.00647762
0.00560104
0.00496366
0.00451741
0.00421893
0.00402816
0.00391043
0.00383908
0.00379615
0.0037708
0.00375606
0.22014
0.157836
0.102428
0.0679849
0.0480065
0.0359708
0.0278829
0.0219946
0.017503
0.014023
0.01133
0.00925896
0.00767587
0.00647687
0.00558287
0.00493552
0.0044857
0.00418815
0.00400099
0.00388817
0.00382223
0.00378469
0.00376417
0.00375343
0.211388
0.154148
0.102452
0.0689291
0.0490099
0.0367967
0.0285287
0.0224883
0.0178701
0.0142867
0.0115124
0.00937813
0.00774783
0.00651534
0.00559992
0.00493831
0.00447911
0.00417664
0.003988
0.00387596
0.00381217
0.00377752
0.00376015
0.00375193
0.204994
0.151641
0.102785
0.0700511
0.0501264
0.0377093
0.029253
0.023056
0.0183087
0.0146208
0.0117628
0.0095621
0.00787987
0.00660701
0.00565999
0.00497461
0.0044986
0.0041849
0.00398947
0.00387387
0.00380873
0.00377464
0.00375833
0.00375133
0.201029
0.150524
0.103663
0.0714563
0.0513975
0.0387342
0.0300714
0.0237083
0.0188261
0.0150282
0.0120807
0.00980751
0.00806694
0.00674722
0.00576248
0.0050468
0.00454686
0.00421505
0.00400682
0.0038829
0.00381277
0.00377605
0.00375861
0.00375132
0.199339
0.150851
0.105282
0.0732132
0.0528753
0.0399027
0.031003
0.0244586
0.0194324
0.0155173
0.0124733
0.0101205
0.00831433
0.00694049
0.00591072
0.00515734
0.00462601
0.00426899
0.00404171
0.00390434
0.00382517
0.0037823
0.0037613
0.00375198
0.199726
0.152637
0.107703
0.0754161
0.05462
0.0412502
0.0320692
0.0253211
0.0201379
0.0160961
0.0129472
0.0105068
0.00862716
0.00719141
0.00610894
0.00531014
0.00473973
0.00435001
0.00409686
0.00394025
0.00384735
0.00379458
0.00376703
0.00375369
0.202079
0.155913
0.111039
0.0781591
0.0566913
0.0428121
0.0332914
0.0263096
0.0209526
0.0167726
0.0135093
0.0109724
0.00901096
0.00750517
0.00636204
0.00550994
0.00489253
0.00446225
0.00417575
0.00399326
0.00388107
0.0038143
0.0037768
0.00375728
0.206328
0.160746
0.115405
0.0815383
0.0591517
0.0446251
0.0346913
0.0274379
0.0218862
0.0175543
0.014166
0.0115235
0.00947147
0.00788734
0.00667547
0.00576214
0.00508976
0.00461083
0.00428302
0.00406726
0.00392939
0.0038434
0.00379231
0.00376339
0.212456
0.167235
0.120938
0.0856602
0.0620699
0.0467298
0.0362922
0.0287201
0.0229481
0.0184484
0.0149236
0.0121658
0.0100145
0.00834372
0.00705511
0.0060727
0.00533748
0.00480181
0.00442439
0.00416724
0.00399626
0.00388478
0.00381519
0.00377297
0.220482
0.175515
0.127795
0.0906484
0.0655256
0.0491723
0.0381201
0.030171
0.0241475
0.0194618
0.0157879
0.0129049
0.0106457
0.00888012
0.00750697
0.00644788
0.0056422
0.00504185
0.00460638
0.00429912
0.00408659
0.0039421
0.00384772
0.00378723
0.230439
0.185731
0.136163
0.0966517
0.0696144
0.0520074
0.0402052
0.0318067
0.0254937
0.0206006
0.016764
0.0137458
0.0113701
0.00950201
0.0080369
0.0068939
0.00601053
0.00533792
0.00483613
0.0044698
0.00420646
0.00401991
0.00389234
0.00380723
0.242352
0.198034
0.146241
0.103841
0.0744492
0.0552998
0.0425824
0.0336451
0.026996
0.0218704
0.0178561
0.0146923
0.0121921
0.0102142
0.00865035
0.00741679
0.00644904
0.00569714
0.00512118
0.00468678
0.00436253
0.0041233
0.00395237
0.00383428
0.256202
0.212567
0.158229
0.1124
0.080158
0.0591245
0.0452923
0.0357067
0.0286644
0.0232764
0.0190676
0.0157476
0.0131149
0.0110209
0.00935221
0.00802223
0.00696416
0.00612661
0.00546917
0.0049579
0.00456219
0.00425834
0.00403197
0.00387016
0.271889
0.229433
0.172299
0.122509
0.0868779
0.063566
0.0483802
0.0380145
0.03051
0.0248237
0.020401
0.0169134
0.0141409
0.0119249
0.0101465
0.00871523
0.0075618
0.00663301
0.00588747
0.00529096
0.00481319
0.00443194
0.00413623
0.00391701
0.289104
0.248694
0.188545
0.134314
0.0947422
0.0687139
0.0518966
0.0405944
0.0325447
0.0265171
0.0218579
0.0181904
0.0152709
0.0129281
0.011036
0.00949973
0.00824694
0.00722224
0.00638274
0.00569333
0.00512328
0.00465145
0.00427095
0.00397727
0.307423
0.270112
0.2069
0.147881
0.103857
0.0746546
0.0558948
0.0434746
0.0347814
0.0283614
0.0234393
0.0195782
0.0165043
0.0140305
0.0120219
0.0103781
0.00902318
0.00789898
0.00696065
0.00617151
0.00549965
0.00492422
0.00444234
0.00405369
0.326313
0.292912
0.227029
0.163137
0.114271
0.081458
0.0604262
0.0466854
0.0372345
0.0303616
0.0251456
0.0210752
0.0178393
0.0152308
0.0131037
0.0113511
0.00989237
0.0086663
0.00762543
0.00673087
0.0059486
0.00525706
0.00465661
0.00414908
0.344731
0.315758
0.248287
0.179777
0.125923
0.0891534
0.0655309
0.0502556
0.0399192
0.0325235
0.0269774
0.0226797
0.0192729
0.0165259
0.0142791
0.0124172
0.0108544
0.00952547
0.00837972
0.00737534
0.00647532
0.005656
0.00491942
0.004266
0.360411
0.336337
0.269454
0.197141
0.138565
0.0976923
0.0712231
0.0542056
0.0428501
0.0348543
0.0289365
0.0243899
0.020802
0.0179121
0.0155443
0.0135735
0.0119073
0.0104758
0.00922432
0.00810734
0.00708371
0.00612602
0.00523568
0.00440634
0.365433
0.351337
0.288813
0.214149
0.151691
0.1069
0.0774678
0.0585407
0.0460381
0.0373615
0.0310258
0.0262055
0.0224239
0.0193857
0.0168953
0.014816
0.0130477
0.0115149
0.0101583
0.00892764
0.00777641
0.00667124
0.00560944
0.00457105
0.328244
0.351312
0.30318
0.229195
0.1645
0.116445
0.0841606
0.0632409
0.0494867
0.0400516
0.0332494
0.0281277
0.0241376
0.020944
0.0183284
0.0161405
0.0142715
0.0126394
0.0111795
0.00983575
0.00855499
0.00729512
0.00604436
0.00475999
0.0111065
0.0167444
0.021615
0.0237376
0.0241108
0.0399273
0.0294915
0.0412729
0.04744
0.0468245
0.0464354
0.0649903
0.0383341
0.052553
0.0613951
0.060724
0.0606999
0.0771904
0.0444094
0.0619742
0.0726818
0.0719875
0.0718826
0.0866568
0.0488458
0.0706499
0.08252
0.0819249
0.0815116
0.0944106
0.0523692
0.0785754
0.0912996
0.0910799
0.0904403
0.101297
0.0553308
0.0858186
0.0992697
0.0998166
0.0992437
0.108253
0.0578784
0.0924459
0.106663
0.108398
0.108234
0.115783
0.0600849
0.0985427
0.113654
0.116944
0.117663
0.124304
0.0619935
0.104131
0.120348
0.125571
0.127725
0.134137
0.0636408
0.109175
0.126786
0.134334
0.138575
0.145494
0.0650637
0.1136
0.132946
0.143207
0.150221
0.158586
0.0661048
0.117376
0.138745
0.15207
0.162511
0.173406
0.0663702
0.120524
0.144034
0.160693
0.175142
0.189711
0.0660851
0.122914
0.148589
0.168724
0.187586
0.206868
0.0649405
0.124334
0.152129
0.175692
0.199051
0.223601
0.0629346
0.12448
0.154276
0.181032
0.208552
0.238304
0.0599716
0.123109
0.154663
0.183974
0.214976
0.249226
0.0559195
0.119769
0.152986
0.184129
0.217052
0.254155
0.0506955
0.113883
0.148677
0.180773
0.214259
0.252278
0.0443002
0.104554
0.141119
0.17318
0.205306
0.24182
0.036215
0.0905366
0.12937
0.160432
0.188793
0.221378
0.0256459
0.0690564
0.111339
0.140683
0.162002
0.185746
0.00964019
0.0402376
0.0849281
0.111109
0.122629
0.120013
0.261129
0.339311
0.307381
0.240464
0.176079
0.125904
0.0911364
0.0682597
0.0531916
0.0429307
0.0356136
0.0301604
0.0259449
0.022587
0.0198424
0.0175451
0.0155764
0.013847
0.0122859
0.010831
0.00942069
0.00800119
0.00654455
0.0049723
0.210377
0.313477
0.30294
0.248371
0.185962
0.134922
0.0982263
0.073537
0.0571419
0.0460043
0.0381267
0.0323111
0.0278513
0.0243188
0.0214403
0.0190323
0.0169645
0.0151395
0.0134796
0.0119156
0.0103771
0.00879521
0.00711666
0.00520746
0.175709
0.287276
0.29298
0.251968
0.193751
0.143207
0.105276
0.0790135
0.0613247
0.0492782
0.0407996
0.0345904
0.0298666
0.0261487
0.0231317
0.0206123
0.0184473
0.0165297
0.0147742
0.0131037
0.0114385
0.00969282
0.00777672
0.00546869
0.153484
0.263699
0.279408
0.25083
0.199184
0.150529
0.112145
0.084634
0.0657297
0.0527593
0.0436446
0.0370114
0.0320035
0.0280899
0.0249321
0.0223047
0.0200496
0.0180491
0.0162082
0.0144405
0.0126552
0.0107478
0.00857911
0.00578428
0.141096
0.24352
0.265412
0.247587
0.202903
0.156854
0.118724
0.0903409
0.0703437
0.0564548
0.0466742
0.0395861
0.0342734
0.030155
0.0268574
0.0241323
0.0218062
0.0197499
0.0178581
0.0160339
0.0141734
0.0121508
0.00976852
0.00646711
0.136373
0.226568
0.251753
0.241905
0.2052
0.162224
0.124944
0.0960785
0.0751484
0.0603673
0.0498965
0.0423218
0.0366805
0.0323457
0.02891
0.0261026
0.0237366
0.0216757
0.0198128
0.018054
0.0163095
0.0145103
0.0127318
0.0115026
0.137083
0.213067
0.238925
0.233991
0.205322
0.166456
0.130689
0.101771
0.0801122
0.0644914
0.0533139
0.0452178
0.0392169
0.034646
0.0310662
0.0281866
0.0258116
0.0238082
0.0220864
0.0205881
0.0192816
0.0181785
0.0174084
0.0172569
0.139838
0.202795
0.227336
0.225546
0.204113
0.169558
0.135867
0.107336
0.08519
0.0688123
0.0569232
0.0482686
0.0418681
0.03703
0.0332882
0.0303339
0.0279657
0.026056
0.0245308
0.023355
0.0225191
0.0220362
0.0219514
0.0222459
0.144744
0.195655
0.217294
0.217201
0.202133
0.17167
0.140402
0.112687
0.090327
0.0733076
0.0607189
0.0514705
0.0446236
0.0394774
0.0355456
0.0325047
0.0301472
0.0283466
0.027032
0.0261658
0.0257221
0.0256731
0.0259641
0.0264673
0.152371
0.191695
0.209082
0.209474
0.199049
0.173075
0.144245
0.11773
0.0954559
0.0779474
0.0646955
0.0548262
0.0474832
0.0419794
0.0378188
0.0346659
0.0323047
0.0306022
0.0294768
0.0288711
0.0287284
0.0289604
0.0294941
0.0301071
0.162063
0.191967
0.20322
0.202895
0.194899
0.173416
0.147374
0.122355
0.100493
0.0826886
0.0688445
0.0583449
0.0504586
0.044541
0.0401002
0.0367925
0.0343908
0.0327482
0.0317633
0.0313525
0.0314209
0.0318485
0.0325435
0.0332331
0.174157
0.194784
0.20024
0.198156
0.190913
0.172945
0.149766
0.12647
0.10534
0.0874749
0.0731521
0.0620403
0.0535738
0.0471825
0.0423972
0.0388728
0.0363711
0.0347271
0.0338161
0.0335279
0.0337216
0.0342907
0.0350946
0.0358444
0.188942
0.201711
0.201273
0.196242
0.187881
0.172175
0.151558
0.130066
0.109913
0.0922398
0.0775941
0.0659254
0.0568615
0.0499394
0.0447351
0.0409143
0.0382314
0.0365047
0.0355866
0.0353427
0.0355935
0.0362435
0.0371199
0.0379187
0.206415
0.214221
0.206548
0.197166
0.186824
0.171793
0.153063
0.133248
0.114162
0.0969147
0.0821353
0.0700078
0.0603605
0.0528629
0.0471616
0.0429501
0.0399858
0.0380765
0.0370564
0.0367711
0.0370141
0.0376809
0.0385946
0.0394315
0.22599
0.23186
0.218698
0.201865
0.187957
0.172328
0.154689
0.136207
0.118161
0.10147
0.0867425
0.0742896
0.0641111
0.056018
0.0497491
0.045046
0.0416851
0.0394753
0.038242
0.0378166
0.0379842
0.0385934
0.0395034
0.0403639
0.246668
0.253735
0.237695
0.213253
0.192922
0.175023
0.157171
0.139364
0.122115
0.105976
0.0914232
0.0787812
0.0681557
0.0594811
0.0525956
0.0473063
0.0434262
0.0407822
0.0392048
0.0385193
0.0385355
0.0389955
0.0398463
0.0407083
0.266674
0.277176
0.261184
0.231948
0.204609
0.181836
0.161857
0.143547
0.126486
0.110667
0.0962785
0.083533
0.0725506
0.0633395
0.0558219
0.0498743
0.0453598
0.0421401
0.0400697
0.0389862
0.0387119
0.0389711
0.0396749
0.0405086
0.283405
0.298224
0.28512
0.255273
0.222802
0.194397
0.17053
0.150142
0.132201
0.116104
0.101619
0.0887139
0.0774104
0.0677102
0.0595748
0.0529323
0.0476941
0.0437656
0.0410419
0.0393948
0.0386662
0.0386592
0.039077
0.0398286
0.293457
0.312528
0.304441
0.278177
0.244566
0.212355
0.184339
0.160704
0.140648
0.123322
0.108138
0.0947617
0.083016
0.0728038
0.0640558
0.0567075
0.0506945
0.0459552
0.0424264
0.04003
0.038659
0.0381354
0.0382384
0.0387462
0.294412
0.31642
0.314237
0.294238
0.264151
0.2321
0.202045
0.17561
0.152945
0.133581
0.116937
0.10252
0.0899753
0.0790607
0.0696138
0.0615212
0.0546998
0.0490885
0.044643
0.0413248
0.0390796
0.0378128
0.0373802
0.037548
0.283911
0.307509
0.310819
0.298084
0.275232
0.247704
0.219362
0.192569
0.168444
0.147269
0.12889
0.112984
0.0992035
0.0872465
0.0768717
0.0678971
0.0601889
0.0536521
0.0482244
0.0438694
0.0405504
0.0382818
0.0369701
0.0366058
0.261406
0.284741
0.29238
0.287844
0.273627
0.253479
0.230583
0.206817
0.183837
0.162542
0.14333
0.126275
0.111265
0.0981128
0.0866153
0.0765829
0.0678555
0.060306
0.0538401
0.048396
0.0439286
0.0404112
0.0379119
0.036561
0.227857
0.249309
0.260659
0.263327
0.259011
0.247636
0.231468
0.213363
0.194352
0.175411
0.157326
0.140529
0.125213
0.111416
0.0990848
0.0881229
0.0784188
0.0698641
0.0623645
0.0558417
0.0502474
0.0455132
0.0416707
0.0387055
0.183882
0.207238
0.22119
0.229459
0.232493
0.229885
0.222232
0.210328
0.196513
0.181902
0.166988
0.152348
0.138373
0.125287
0.113197
0.102136
0.0920884
0.0830136
0.0748646
0.0675776
0.0611312
0.0554155
0.0506645
0.0458703
)
;

boundaryField
{
    rotor
    {
        type            kqRWallFunction;
        value           nonuniform List<scalar> 
144
(
0.00337206
0.00765974
0.0165782
0.0282278
0.0452513
0.0770325
0.00337206
0.01457
0.0187891
0.0211312
0.0229709
0.024223
0.0249395
0.0251926
0.0255647
0.0259327
0.0261971
0.02631
0.0262388
0.0259813
0.0256115
0.0251905
0.0249665
0.024992
0.0245614
0.0236299
0.0221562
0.0201595
0.0162922
0.00419337
0.00419337
0.00877156
0.0161653
0.0260743
0.0344894
0.0479336
0.00549067
0.0281351
0.0721732
0.119735
0.152377
0.154704
0.00549067
0.0174197
0.0253009
0.0308103
0.0350551
0.0383135
0.0407559
0.0424969
0.0436184
0.0441787
0.0442175
0.043768
0.0428849
0.0416953
0.040177
0.038316
0.0360988
0.0334851
0.0303152
0.0260158
0.0237261
0.0217007
0.0177969
0.00509608
0.00509608
0.00778471
0.0145839
0.0242002
0.0416942
0.121235
0.00678173
0.0319618
0.077971
0.118689
0.13808
0.129222
0.00678173
0.0212682
0.0307934
0.0382284
0.0444165
0.049544
0.0537387
0.0570939
0.0596758
0.061529
0.062679
0.0631475
0.0631014
0.0626086
0.061594
0.0599704
0.0576456
0.0545188
0.0504769
0.0453931
0.0391504
0.0316747
0.0224027
0.0066675
0.0066675
0.0229669
0.0539696
0.089492
0.138996
0.168
0.0111065
0.0167444
0.021615
0.0237376
0.0241108
0.0399273
0.0111065
0.0294915
0.0383341
0.0444094
0.0488458
0.0523692
0.0553308
0.0578784
0.0600849
0.0619935
0.0636408
0.0650637
0.0661048
0.0663702
0.0660851
0.0649405
0.0629346
0.0599716
0.0559195
0.0506955
0.0443002
0.036215
0.0256459
0.00964019