/*--------------------------------*- C++ -*----------------------------------*\
  =========                 |
  \\      /  F ield         | OpenFOAM: The Open Source CFD Toolbox
   \\    /   O peration     | Website:  https://openfoam.org
    \\  /    A nd           | Version:  11
     \\/     M anipulation  |
\*---------------------------------------------------------------------------*/
FoamFile
{
    format      ascii;
    class       surfaceScalarField;
    location    "1.44";
    object      phi;
}
// * * * * * * * * * * * * * * * * * * * * * * * * * * * * * * * * * * * * * //

dimensions      [0 3 -1 0 0 0 0];

internalField   nonuniform List<scalar> 
5640
(
-2.2473e-07
2.2473e-07
-5.12313e-07
2.87583e-07
-7.09029e-07
1.96716e-07
-7.42815e-07
3.37854e-08
-6.82308e-08
-6.74584e-07
-1.10577e-06
1.03754e-06
-2.78598e-07
5.03328e-07
-5.51239e-07
5.60224e-07
-6.94808e-07
3.40286e-07
-6.19538e-07
-4.14848e-08
-1.76593e-07
-1.11753e-06
-2.01763e-06
7.35268e-07
-2.79297e-07
7.82625e-07
-5.30625e-07
8.11552e-07
-6.59608e-07
4.69269e-07
-5.77543e-07
-1.2355e-07
-3.00914e-07
-1.39416e-06
-2.61948e-06
3.00936e-07
-2.75501e-07
1.05813e-06
-5.07792e-07
1.04384e-06
-6.38599e-07
6.00075e-07
-5.97164e-07
-1.64986e-07
-4.51317e-07
-1.54001e-06
-2.94104e-06
-1.29755e-07
-2.7001e-07
1.32814e-06
-4.87779e-07
1.26161e-06
-6.31471e-07
7.43767e-07
-6.50153e-07
-1.46304e-07
-6.17402e-07
-1.57276e-06
-3.07606e-06
-4.82381e-07
-2.63868e-07
1.592e-06
-4.69725e-07
1.46747e-06
-6.33005e-07
9.07047e-07
-7.17859e-07
-6.14492e-08
-7.88499e-07
-1.50212e-06
-3.04048e-06
-8.24077e-07
-2.56294e-07
1.8483e-06
-4.51675e-07
1.66285e-06
-6.36524e-07
1.0919e-06
-7.86874e-07
8.89002e-08
-9.50686e-07
-1.3383e-06
-2.87445e-06
-1.11672e-06
-2.40497e-07
2.0888e-06
-4.29546e-07
1.8519e-06
-6.35771e-07
1.29812e-06
-8.46382e-07
2.99511e-07
-1.09024e-06
-1.09445e-06
-2.61488e-06
-1.3498e-06
-2.11754e-07
2.30055e-06
-3.99203e-07
2.03935e-06
-6.24872e-07
1.52379e-06
-8.87481e-07
5.6212e-07
-1.19694e-06
-7.84993e-07
-2.29e-06
-1.52182e-06
-1.7836e-07
2.47891e-06
-3.58656e-07
2.21964e-06
-5.987e-07
1.76383e-06
-9.02854e-07
8.66274e-07
-1.26322e-06
-4.24623e-07
-1.92213e-06
-1.63109e-06
-1.40698e-07
2.61961e-06
-3.06414e-07
2.38536e-06
-5.52913e-07
2.01033e-06
-8.86527e-07
1.19989e-06
-1.28314e-06
-2.80088e-08
-1.53022e-06
-1.67506e-06
-9.79935e-08
2.7176e-06
-2.40956e-07
2.52832e-06
-4.83948e-07
2.25332e-06
-8.33736e-07
1.54968e-06
-1.25251e-06
3.9077e-07
-1.12913e-06
-1.6536e-06
-4.93747e-08
2.76698e-06
-1.61286e-07
2.64024e-06
-3.89095e-07
2.48113e-06
-7.40712e-07
1.90129e-06
-1.16792e-06
8.17973e-07
-7.31772e-07
-1.56528e-06
6.66724e-09
2.76031e-06
-6.71533e-08
2.71406e-06
-2.6662e-07
2.6806e-06
-6.04586e-07
2.23926e-06
-1.02658e-06
1.23996e-06
-3.48894e-07
-1.40946e-06
6.89181e-08
2.69139e-06
4.08186e-08
2.74216e-06
-1.15934e-07
2.83735e-06
-4.23412e-07
2.54674e-06
-8.26292e-07
1.64285e-06
1.15206e-08
-1.18671e-06
1.42308e-07
2.54908e-06
1.61503e-07
2.72296e-06
6.20811e-08
2.93677e-06
-1.96324e-07
2.80514e-06
-5.65241e-07
2.01176e-06
3.44507e-07
-8.98228e-07
2.22403e-07
2.32668e-06
2.90203e-07
2.65516e-06
2.64907e-07
2.96207e-06
7.63045e-08
2.99375e-06
-2.42985e-07
2.33105e-06
6.46986e-07
-5.45463e-07
2.81167e-07
2.04551e-06
4.2025e-07
2.51608e-06
4.87794e-07
2.89453e-06
3.9225e-07
3.08929e-06
1.3693e-07
2.58637e-06
9.17955e-07
-1.3404e-07
3.2129e-07
1.72422e-06
5.46359e-07
2.29101e-06
7.2459e-07
2.7163e-06
7.48875e-07
3.065e-06
5.91953e-07
2.74329e-06
1.16483e-06
3.45076e-07
3.51025e-07
1.3732e-06
6.64069e-07
1.97796e-06
9.67301e-07
2.41306e-06
1.14066e-06
2.89164e-06
1.11286e-06
2.7711e-06
1.37626e-06
9.01429e-07
3.69776e-07
1.00342e-06
7.67959e-07
1.57978e-06
1.20462e-06
1.9764e-06
1.56139e-06
2.53486e-06
1.71809e-06
2.6144e-06
1.49407e-06
1.60029e-06
3.75626e-07
6.27795e-07
8.51624e-07
1.10378e-06
1.42029e-06
1.40774e-06
1.99881e-06
1.95634e-06
2.43223e-06
2.18099e-06
1.37962e-06
2.54668e-06
3.62718e-07
2.65077e-07
9.0463e-07
5.61872e-07
1.58445e-06
7.27926e-07
2.42157e-06
1.11922e-06
3.26288e-06
1.33968e-06
8.91243e-07
3.75125e-06
2.65077e-07
8.26949e-07
1.55487e-06
2.67409e-06
4.01377e-06
4.90501e-06
-1.17999e-06
-1.09043e-05
1.31218e-05
-1.32054e-06
-1.04475e-05
1.0588e-05
-3.76589e-07
-8.52447e-06
7.58052e-06
1.31567e-06
-6.48877e-06
4.7965e-06
3.59949e-06
-4.62977e-06
2.34596e-06
6.33688e-06
-3.03957e-06
3.02176e-07
9.41112e-06
-1.74166e-06
-1.33258e-06
1.27218e-05
-7.34148e-07
-2.57648e-06
1.61873e-05
-4.2934e-09
-3.46129e-06
1.97421e-05
4.69464e-07
-4.02426e-06
2.33341e-05
7.11502e-07
-4.30351e-06
2.69255e-05
7.45722e-07
-4.33711e-06
3.04903e-05
5.97566e-07
-4.1623e-06
3.40122e-05
2.92245e-07
-3.81424e-06
3.74835e-05
-1.46701e-07
-3.32457e-06
4.09026e-05
-6.97329e-07
-2.72178e-06
4.42731e-05
-1.33898e-06
-2.0315e-06
4.76013e-05
-2.05186e-06
-1.27629e-06
5.08953e-05
-2.81748e-06
-4.76528e-07
5.41628e-05
-3.61681e-06
3.49298e-07
5.74138e-05
-4.43612e-06
1.18513e-06
6.06484e-05
-5.25088e-06
2.01623e-06
6.38746e-05
-6.08125e-06
2.85502e-06
-6.85503e-06
3.58454e-06
-5.15528e-07
-9.65351e-06
-9.80709e-07
-9.98232e-06
-4.70945e-07
-9.03423e-06
7.48516e-07
-7.70823e-06
2.53982e-06
-6.42108e-06
4.78007e-06
-5.27981e-06
7.36484e-06
-4.32643e-06
1.02043e-05
-3.57358e-06
1.32212e-05
-3.02118e-06
1.63531e-05
-2.66245e-06
1.95497e-05
-2.48512e-06
2.2772e-05
-2.47658e-06
2.5992e-05
-2.62242e-06
2.91919e-05
-2.90766e-06
3.23615e-05
-3.31634e-06
3.5497e-05
-3.83277e-06
3.86001e-05
-4.4421e-06
4.16772e-05
-5.12899e-06
4.4738e-05
-5.8783e-06
4.7794e-05
-6.67278e-06
5.08565e-05
-7.49863e-06
5.39377e-05
-8.33205e-06
5.70353e-05
-9.17881e-06
-1.00387e-05
-5.34367e-07
-8.8182e-06
-9.68527e-07
-9.54816e-06
-7.06679e-07
-9.29608e-06
1.48883e-07
-8.56379e-06
1.50311e-06
-7.7753e-06
3.26047e-06
-7.03718e-06
5.33487e-06
-6.40083e-06
7.64889e-06
-5.8876e-06
1.01341e-05
-5.50642e-06
1.27307e-05
-5.25902e-06
1.53893e-05
-5.1437e-06
1.80699e-05
-5.15715e-06
2.07411e-05
-5.29366e-06
2.33812e-05
-5.54775e-06
2.59781e-05
-5.91329e-06
2.85289e-05
-6.38349e-06
3.10375e-05
-6.95071e-06
3.35148e-05
-7.60628e-06
3.59772e-05
-8.3408e-06
3.84464e-05
-9.1419e-06
4.09427e-05
-9.99493e-06
4.34866e-05
-1.08759e-05
4.60743e-05
-1.17665e-05
-1.26847e-05
-7.71679e-07
-8.17628e-06
-1.14607e-06
-9.17377e-06
-1.03506e-06
-9.40709e-06
-4.45805e-07
-9.15305e-06
5.50214e-07
-8.77132e-06
1.88297e-06
-8.36993e-06
3.48174e-06
-7.9996e-06
5.28183e-06
-7.68769e-06
7.22443e-06
-7.44903e-06
9.25655e-06
-7.29113e-06
1.13329e-05
-7.22005e-06
1.34153e-05
-7.23958e-06
1.54742e-05
-7.35257e-06
1.74885e-05
-7.56197e-06
1.94462e-05
-7.87107e-06
2.13463e-05
-8.28359e-06
2.31981e-05
-8.8025e-06
2.50209e-05
-9.42903e-06
2.68418e-05
-1.01617e-05
2.8694e-05
-1.09941e-05
3.06105e-05
-1.19115e-05
3.26192e-05
-1.28846e-05
3.47245e-05
-1.38718e-05
-1.4844e-05
-1.06835e-06
-7.59031e-06
-1.4127e-06
-8.82942e-06
-1.39178e-06
-9.428e-06
-9.86489e-07
-9.55834e-06
-2.50703e-07
-9.50711e-06
7.53999e-07
-9.37463e-06
1.97009e-06
-9.21569e-06
3.34117e-06
-9.05876e-06
4.8174e-06
-8.92526e-06
6.35494e-06
-8.82867e-06
7.9153e-06
-8.78041e-06
9.46596e-06
-8.79024e-06
1.09823e-05
-8.8689e-06
1.24487e-05
-9.02838e-06
1.38584e-05
-9.28074e-06
1.52139e-05
-9.63916e-06
1.65285e-05
-1.0117e-05
1.78254e-05
-1.0726e-05
1.91374e-05
-1.14737e-05
2.05036e-05
-1.23603e-05
2.19646e-05
-1.33724e-05
2.35544e-05
-1.44744e-05
2.52851e-05
-1.56025e-05
-1.66593e-05
-1.36693e-06
-7.04746e-06
-1.69479e-06
-8.50155e-06
-1.72283e-06
-9.39997e-06
-1.43022e-06
-9.85095e-06
-8.6209e-07
-1.00752e-05
-7.13018e-08
-1.01654e-05
8.8838e-07
-1.01754e-05
1.96883e-06
-1.01392e-05
3.12508e-06
-1.00815e-05
4.32024e-06
-1.00238e-05
5.52549e-06
-9.98567e-06
6.71921e-06
-9.98395e-06
7.8866e-06
-1.00363e-05
9.01969e-06
-1.01615e-05
1.0118e-05
-1.03791e-05
1.11883e-05
-1.07094e-05
1.22442e-05
-1.11729e-05
1.33059e-05
-1.17877e-05
1.4399e-05
-1.25667e-05
1.55506e-05
-1.35119e-05
1.67879e-05
-1.46098e-05
1.81363e-05
-1.58228e-05
1.96016e-05
-1.70678e-05
-1.81696e-05
-1.63626e-06
-6.52793e-06
-1.94561e-06
-8.1922e-06
-1.98374e-06
-9.36184e-06
-1.73786e-06
-1.00968e-05
-1.24855e-06
-1.05646e-05
-5.64005e-07
-1.085e-05
2.70128e-07
-1.10095e-05
1.21441e-06
-1.10835e-05
2.23483e-06
-1.11019e-05
3.30116e-06
-1.10902e-05
4.39132e-06
-1.10758e-05
5.48775e-06
-1.10804e-05
6.58004e-06
-1.11286e-05
7.66323e-06
-1.12447e-05
8.73747e-06
-1.14533e-05
9.80684e-06
-1.17788e-05
1.08781e-05
-1.22441e-05
1.19598e-05
-1.28694e-05
1.3063e-05
-1.367e-05
1.42022e-05
-1.46511e-05
1.53931e-05
-1.58007e-05
1.66478e-05
-1.70775e-05
1.79615e-05
-1.83814e-05
-1.9503e-05
-1.8533e-06
-6.02443e-06
-2.13251e-06
-7.91299e-06
-2.14193e-06
-9.35242e-06
-1.87931e-06
-1.03594e-05
-1.38457e-06
-1.10593e-05
-7.03536e-07
-1.1531e-05
1.2185e-07
-1.18349e-05
1.05625e-06
-1.20179e-05
2.07194e-06
-1.21176e-05
3.14818e-06
-1.21664e-05
4.26679e-06
-1.21944e-05
5.41662e-06
-1.22302e-05
6.58937e-06
-1.23013e-05
7.77914e-06
-1.24344e-05
8.98325e-06
-1.26574e-05
1.02015e-05
-1.29971e-05
1.14352e-05
-1.34778e-05
1.26864e-05
-1.41206e-05
1.39583e-05
-1.49419e-05
1.52566e-05
-1.59494e-05
1.65912e-05
-1.71353e-05
1.7975e-05
-1.84613e-05
1.9428e-05
-1.98344e-05
-2.1038e-05
-2.00462e-06
-5.54163e-06
-2.2327e-06
-7.6849e-06
-2.17096e-06
-9.41416e-06
-1.82774e-06
-1.07027e-05
-1.2472e-06
-1.16398e-05
-4.75211e-07
-1.2303e-05
4.488e-07
-1.27589e-05
1.49395e-06
-1.30631e-05
2.63773e-06
-1.32614e-05
3.86461e-06
-1.33933e-05
5.16406e-06
-1.34939e-05
6.5296e-06
-1.35958e-05
7.9579e-06
-1.37296e-05
9.44764e-06
-1.39242e-05
1.09976e-05
-1.42073e-05
1.26069e-05
-1.46064e-05
1.42737e-05
-1.51446e-05
1.59955e-05
-1.58424e-05
1.77696e-05
-1.6716e-05
1.95951e-05
-1.77749e-05
2.14766e-05
-1.90168e-05
2.34235e-05
-2.04083e-05
2.54575e-05
-2.18683e-05
-2.32063e-05
-2.08295e-06
-5.08977e-06
-2.23191e-06
-7.53594e-06
-2.04714e-06
-9.59893e-06
-1.55604e-06
-1.11938e-05
-8.10425e-07
-1.23854e-05
1.41571e-07
-1.3255e-05
1.26149e-06
-1.38788e-05
2.52266e-06
-1.43242e-05
3.90773e-06
-1.46465e-05
5.40675e-06
-1.48923e-05
7.01507e-06
-1.51022e-05
8.73168e-06
-1.53124e-05
1.05578e-05
-1.55557e-05
1.2496e-05
-1.58624e-05
1.45483e-05
-1.62596e-05
1.67143e-05
-1.67724e-05
1.89923e-05
-1.74226e-05
2.13775e-05
-1.82276e-05
2.38624e-05
-1.92009e-05
2.64372e-05
-2.03497e-05
2.90915e-05
-2.16711e-05
3.1829e-05
-2.31458e-05
3.4667e-05
-2.47063e-05
-2.61922e-05
-2.07968e-06
-4.68514e-06
-2.11134e-06
-7.50428e-06
-1.74651e-06
-9.96377e-06
-1.03624e-06
-1.1904e-05
-4.58889e-08
-1.33758e-05
1.16901e-06
-1.44699e-05
2.57121e-06
-1.5281e-05
4.13607e-06
-1.58891e-05
5.85074e-06
-1.63612e-05
7.71038e-06
-1.67519e-05
9.71563e-06
-1.71075e-05
1.18701e-05
-1.74669e-05
1.4179e-05
-1.78646e-05
1.66472e-05
-1.83306e-05
1.92781e-05
-1.88904e-05
2.20713e-05
-1.95657e-05
2.50234e-05
-2.03747e-05
2.81265e-05
-2.13307e-05
3.13666e-05
-2.2441e-05
3.47237e-05
-2.37068e-05
3.81733e-05
-2.51207e-05
4.16962e-05
-2.66687e-05
4.52778e-05
-2.82879e-05
-2.98856e-05
-1.99041e-06
-4.34833e-06
-1.85684e-06
-7.63785e-06
-1.24571e-06
-1.05749e-05
-2.40433e-07
-1.29093e-05
1.07126e-06
-1.46875e-05
2.62685e-06
-1.60255e-05
4.38607e-06
-1.70402e-05
6.32678e-06
-1.78298e-05
8.44023e-06
-1.84746e-05
1.07251e-05
-1.90368e-05
1.31847e-05
-1.95671e-05
1.58245e-05
-2.01067e-05
1.86498e-05
-2.06899e-05
2.16641e-05
-2.1345e-05
2.48689e-05
-2.20951e-05
2.82615e-05
-2.29583e-05
3.18336e-05
-2.39468e-05
3.55705e-05
-2.50677e-05
3.94503e-05
-2.63207e-05
4.34454e-05
-2.77019e-05
4.75237e-05
-2.91989e-05
5.16489e-05
-3.07939e-05
5.57659e-05
-3.24049e-05
-3.40983e-05
-1.80762e-06
-4.10599e-06
-1.45344e-06
-7.99204e-06
-5.2118e-07
-1.15072e-05
8.56597e-07
-1.42871e-05
2.56615e-06
-1.6397e-05
4.53349e-06
-1.79928e-05
6.71535e-06
-1.92221e-05
9.08861e-06
-2.0203e-05
1.1643e-05
-2.1029e-05
1.43768e-05
-2.17707e-05
1.7293e-05
-2.24832e-05
2.0396e-05
-2.32097e-05
2.36898e-05
-2.39837e-05
2.71765e-05
-2.48317e-05
3.08553e-05
-2.57739e-05
3.47196e-05
-2.68226e-05
3.87583e-05
-2.79854e-05
4.29553e-05
-2.92647e-05
4.72794e-05
-3.06448e-05
5.16991e-05
-3.21216e-05
5.61827e-05
-3.36825e-05
6.06851e-05
-3.52963e-05
6.51611e-05
-3.6881e-05
-3.85321e-05
-1.52703e-06
-3.98841e-06
-8.85065e-07
-8.634e-06
4.51197e-07
-1.28434e-05
2.28063e-06
-1.61165e-05
4.45766e-06
-1.85741e-05
6.88776e-06
-2.04229e-05
9.5151e-06
-2.18494e-05
1.23148e-05
-2.30027e-05
1.52808e-05
-2.3995e-05
1.84164e-05
-2.49063e-05
2.17257e-05
-2.57924e-05
2.52125e-05
-2.66965e-05
2.88797e-05
-2.76509e-05
3.27258e-05
-2.86778e-05
3.67479e-05
-2.9796e-05
4.09296e-05
-3.10043e-05
4.52542e-05
-3.231e-05
4.97034e-05
-3.3714e-05
5.42548e-05
-3.51962e-05
5.88509e-05
-3.67177e-05
6.33815e-05
-3.82132e-05
6.77037e-05
-3.96184e-05
7.1787e-05
-4.09643e-05
-4.22978e-05
-1.14302e-06
-4.0321e-06
-1.26974e-07
-9.65005e-06
1.69667e-06
-1.46671e-05
4.04629e-06
-1.84661e-05
6.71591e-06
-2.12437e-05
9.58888e-06
-2.32959e-05
1.2617e-05
-2.48776e-05
1.57899e-05
-2.61756e-05
1.91079e-05
-2.73129e-05
2.25734e-05
-2.83718e-05
2.61871e-05
-2.94062e-05
2.99478e-05
-3.04572e-05
3.38546e-05
-3.15577e-05
3.78961e-05
-3.27193e-05
4.20675e-05
-3.39674e-05
4.63563e-05
-3.52931e-05
5.07082e-05
-3.66619e-05
5.50071e-05
-3.80129e-05
5.91272e-05
-3.93163e-05
6.29648e-05
-4.05553e-05
6.64908e-05
-4.17392e-05
6.97236e-05
-4.28512e-05
7.27507e-05
-4.39914e-05
-4.50493e-05
-6.46209e-07
-4.28412e-06
8.39073e-07
-1.11353e-05
3.23441e-06
-1.70624e-05
6.1167e-06
-2.13484e-05
9.23607e-06
-2.4363e-05
1.24874e-05
-2.65472e-05
1.58417e-05
-2.82319e-05
1.92948e-05
-2.96287e-05
2.28481e-05
-3.08663e-05
2.64997e-05
-3.20234e-05
3.02448e-05
-3.31512e-05
3.40762e-05
-3.42886e-05
3.79936e-05
-3.54752e-05
4.19877e-05
-3.67134e-05
4.59702e-05
-3.79499e-05
4.98113e-05
-3.91342e-05
5.34106e-05
-4.02612e-05
5.67432e-05
-4.13455e-05
5.98351e-05
-4.24081e-05
6.27206e-05
-4.34408e-05
6.54373e-05
-4.44559e-05
6.80219e-05
-4.54358e-05
7.04216e-05
-4.63911e-05
-4.71705e-05
8.63673e-09
-4.83822e-06
2.0585e-06
-1.31852e-05
5.05237e-06
-2.00563e-05
8.41208e-06
-2.47081e-05
1.18795e-05
-2.78305e-05
1.53773e-05
-3.0045e-05
1.88988e-05
-3.17534e-05
2.2449e-05
-3.3179e-05
2.60278e-05
-3.44451e-05
2.96283e-05
-3.56238e-05
3.32439e-05
-3.67669e-05
3.68767e-05
-3.79214e-05
4.04539e-05
-3.90524e-05
4.38576e-05
-4.0117e-05
4.7018e-05
-4.11103e-05
4.99595e-05
-4.20758e-05
5.27209e-05
-4.30226e-05
5.5339e-05
-4.39636e-05
5.7843e-05
-4.49122e-05
6.02568e-05
-4.58546e-05
6.25662e-05
-4.67652e-05
6.47371e-05
-4.76067e-05
6.66063e-05
-4.82603e-05
-4.87213e-05
7.91946e-07
-5.7642e-06
3.55746e-06
-1.59507e-05
7.10167e-06
-2.36005e-05
1.07834e-05
-2.83899e-05
1.43909e-05
-3.14379e-05
1.79142e-05
-3.35683e-05
2.1375e-05
-3.52141e-05
2.47816e-05
-3.65856e-05
2.81311e-05
-3.77946e-05
3.14171e-05
-3.89098e-05
3.46278e-05
-3.99777e-05
3.76877e-05
-4.09813e-05
4.05332e-05
-4.18978e-05
4.31842e-05
-4.27681e-05
4.56848e-05
-4.36109e-05
4.80678e-05
-4.44588e-05
5.03704e-05
-4.53252e-05
5.26046e-05
-4.61978e-05
5.47383e-05
-4.70459e-05
5.67323e-05
-4.78486e-05
5.85488e-05
-4.85818e-05
6.01679e-05
-4.92258e-05
6.15802e-05
-4.96726e-05
-4.98411e-05
1.82564e-06
-7.24477e-06
5.33804e-06
-1.94631e-05
9.23506e-06
-2.74975e-05
1.29496e-05
-3.21044e-05
1.64319e-05
-3.49203e-05
1.9745e-05
-3.68814e-05
2.29225e-05
-3.83916e-05
2.59739e-05
-3.9637e-05
2.8896e-05
-4.07167e-05
3.16832e-05
-4.16969e-05
3.42996e-05
-4.25941e-05
3.67269e-05
-4.34086e-05
3.90128e-05
-4.41837e-05
4.11852e-05
-4.49405e-05
4.32875e-05
-4.57132e-05
4.53302e-05
-4.65014e-05
4.72855e-05
-4.72805e-05
4.91183e-05
-4.80306e-05
5.0813e-05
-4.87406e-05
5.23624e-05
-4.9398e-05
5.37681e-05
-4.99874e-05
5.50245e-05
-5.04822e-05
5.61527e-05
-5.08009e-05
-5.07437e-05
3.15695e-06
-9.50029e-06
7.27956e-06
-2.35857e-05
1.11765e-05
-3.13944e-05
1.46161e-05
-3.5544e-05
1.77584e-05
-3.80626e-05
2.06941e-05
-3.98172e-05
2.34554e-05
-4.11529e-05
2.60516e-05
-4.22332e-05
2.84851e-05
-4.31503e-05
3.07539e-05
-4.39657e-05
3.28631e-05
-4.47033e-05
3.48525e-05
-4.5398e-05
3.67548e-05
-4.6086e-05
3.86014e-05
-4.67871e-05
4.03816e-05
-4.74934e-05
4.20619e-05
-4.81817e-05
4.36318e-05
-4.88504e-05
4.50948e-05
-4.94937e-05
4.64559e-05
-5.01017e-05
4.77177e-05
-5.06598e-05
4.88764e-05
-5.11461e-05
4.99174e-05
-5.15232e-05
5.08262e-05
-5.17097e-05
-5.15106e-05
4.81515e-06
-1.27152e-05
9.13059e-06
-2.79012e-05
1.26637e-05
-3.49276e-05
1.56475e-05
-3.85278e-05
1.83463e-05
-4.07614e-05
2.08403e-05
-4.23112e-05
2.31522e-05
-4.34648e-05
2.52943e-05
-4.43753e-05
2.72785e-05
-4.51345e-05
2.91265e-05
-4.58137e-05
3.08691e-05
-4.6446e-05
3.25384e-05
-4.70673e-05
3.41387e-05
-4.76863e-05
3.56593e-05
-4.83077e-05
3.70921e-05
-4.89262e-05
3.84475e-05
-4.9537e-05
3.97315e-05
-5.01345e-05
4.0947e-05
-5.07092e-05
4.20923e-05
-5.12469e-05
4.31607e-05
-5.17283e-05
4.41402e-05
-5.21256e-05
4.50153e-05
-5.23983e-05
4.57762e-05
-5.24706e-05
-5.21926e-05
6.72218e-06
-1.68907e-05
1.06658e-05
-3.18448e-05
1.36049e-05
-3.78666e-05
1.60784e-05
-4.10012e-05
1.83157e-05
-4.29987e-05
2.0368e-05
-4.43635e-05
2.22488e-05
-4.53455e-05
2.39771e-05
-4.61036e-05
2.55866e-05
-4.6744e-05
2.70994e-05
-4.73264e-05
2.85309e-05
-4.78775e-05
2.98933e-05
-4.84297e-05
3.11937e-05
-4.89867e-05
3.24349e-05
-4.95489e-05
3.3622e-05
-5.01133e-05
3.47581e-05
-5.06731e-05
3.58418e-05
-5.12182e-05
3.68687e-05
-5.1736e-05
3.78323e-05
-5.22105e-05
3.87257e-05
-5.26217e-05
3.95421e-05
-5.29419e-05
4.02774e-05
-5.31336e-05
4.09386e-05
-5.31319e-05
-5.28168e-05
8.74378e-06
-2.18832e-05
1.17917e-05
-3.48927e-05
1.40144e-05
-4.00894e-05
1.599e-05
-4.29768e-05
1.77923e-05
-4.4801e-05
1.94299e-05
-4.60011e-05
2.09231e-05
-4.68388e-05
2.22986e-05
-4.74791e-05
2.35779e-05
-4.80234e-05
2.47825e-05
-4.8531e-05
2.59362e-05
-4.90311e-05
2.70446e-05
-4.95381e-05
2.81124e-05
-5.00545e-05
2.91412e-05
-5.05778e-05
3.01295e-05
-5.11016e-05
3.1074e-05
-5.16175e-05
3.19708e-05
-5.2115e-05
3.28162e-05
-5.25814e-05
3.36068e-05
-5.30011e-05
3.4339e-05
-5.33539e-05
3.5011e-05
-5.36139e-05
3.56246e-05
-5.37472e-05
3.6192e-05
-5.36993e-05
-5.33739e-05
1.0707e-05
-2.76851e-05
1.23898e-05
-3.65755e-05
1.3923e-05
-4.16226e-05
1.54562e-05
-4.451e-05
1.68679e-05
-4.62127e-05
1.81397e-05
-4.72729e-05
1.92925e-05
-4.79915e-05
2.03559e-05
-4.85425e-05
2.13566e-05
-4.90241e-05
2.23132e-05
-4.94876e-05
2.32367e-05
-4.99546e-05
2.41308e-05
-5.04322e-05
2.49958e-05
-5.09195e-05
2.58294e-05
-5.14113e-05
2.66283e-05
-5.19005e-05
2.73896e-05
-5.23788e-05
2.81104e-05
-5.28359e-05
2.87883e-05
-5.32593e-05
2.94211e-05
-5.36339e-05
3.00076e-05
-5.39404e-05
3.05489e-05
-5.41552e-05
3.10499e-05
-5.42483e-05
3.15248e-05
-5.41742e-05
-5.38585e-05
-6.59305e-07
6.59305e-07
-1.24602e-06
5.86714e-07
-1.08359e-06
-1.62427e-07
1.84224e-07
-1.26782e-06
3.56256e-06
-3.37834e-06
-6.19871e-06
9.76127e-06
-7.45133e-07
1.40444e-06
-1.0604e-06
9.01979e-07
-6.04021e-07
-6.18804e-07
8.86582e-07
-2.75842e-06
3.62023e-06
-6.11199e-06
-1.07373e-05
8.15887e-06
-7.05123e-07
2.10956e-06
-8.38312e-07
1.03517e-06
-2.43411e-07
-1.2137e-06
1.28077e-06
-4.2826e-06
3.77812e-06
-8.60934e-06
-1.41852e-05
7.22596e-06
-6.34854e-07
2.74442e-06
-6.54612e-07
1.05493e-06
-1.20527e-09
-1.86711e-06
1.4435e-06
-5.7273e-06
3.67586e-06
-1.08417e-05
-1.69218e-05
6.41252e-06
-5.5544e-07
3.29985e-06
-5.0984e-07
1.00933e-06
1.21813e-07
-2.49876e-06
1.43969e-06
-7.04518e-06
3.37146e-06
-1.27735e-05
-1.91388e-05
5.58838e-06
-4.74623e-07
3.77448e-06
-3.99304e-07
9.34007e-07
1.74323e-07
-3.07239e-06
1.3186e-06
-8.18945e-06
2.95072e-06
-1.44056e-05
-2.09351e-05
4.74705e-06
-3.96547e-07
4.17103e-06
-3.18413e-07
8.55873e-07
1.65573e-07
-3.55638e-06
1.11336e-06
-9.13725e-06
2.46017e-06
-1.57524e-05
-2.23722e-05
3.89732e-06
-3.22938e-07
4.49396e-06
-2.62043e-07
7.94978e-07
1.09561e-07
-3.92798e-06
8.47941e-07
-9.87563e-06
1.92099e-06
-1.68255e-05
-2.3492e-05
3.04072e-06
-2.53868e-07
4.74783e-06
-2.2435e-07
7.6546e-07
2.09985e-08
-4.17333e-06
5.40599e-07
-1.03952e-05
1.34728e-06
-1.76321e-05
-2.43228e-05
2.17815e-06
-1.88278e-07
4.93611e-06
-1.98974e-07
7.76155e-07
-9.26825e-08
-4.27962e-06
2.06479e-07
-1.06944e-05
7.50639e-07
-1.81763e-05
-2.48845e-05
1.31228e-06
-1.24422e-07
5.06053e-06
-1.79007e-07
8.30739e-07
-2.14098e-07
-4.24453e-06
-1.40695e-07
-1.07678e-05
1.42363e-07
-1.84593e-05
-2.51943e-05
4.52199e-07
-6.01235e-08
5.12065e-06
-1.57537e-07
9.28153e-07
-3.33044e-07
-4.06902e-06
-4.88246e-07
-1.06126e-05
-4.65976e-07
-1.84816e-05
-2.52638e-05
-3.96499e-07
6.98871e-09
5.11367e-06
-1.27736e-07
1.06288e-06
-4.37796e-07
-3.75896e-06
-8.22051e-07
-1.02283e-05
-1.06194e-06
-1.82417e-05
-2.5103e-05
-1.22271e-06
7.80423e-08
5.03562e-06
-8.3023e-08
1.22394e-06
-5.16112e-07
-3.32587e-06
-1.1277e-06
-9.61675e-06
-1.63452e-06
-1.77349e-05
-2.47152e-05
-2.02237e-06
1.54913e-07
4.88071e-06
-1.78388e-08
1.39669e-06
-5.55453e-07
-2.78826e-06
-1.38852e-06
-8.78368e-06
-2.17065e-06
-1.69528e-05
-2.41027e-05
-2.78309e-06
2.38782e-07
4.64193e-06
7.40662e-08
1.56141e-06
-5.43173e-07
-2.17102e-06
-1.58593e-06
-7.74092e-06
-2.65328e-06
-1.58854e-05
-2.3261e-05
-3.495e-06
3.30043e-07
4.31189e-06
1.94847e-07
1.69661e-06
-4.67252e-07
-1.50892e-06
-1.69874e-06
-6.50943e-06
-3.06025e-06
-1.45239e-05
-2.21732e-05
-4.14805e-06
4.28752e-07
3.88314e-06
3.45655e-07
1.7797e-06
-3.17563e-07
-8.45703e-07
-1.70258e-06
-5.12441e-06
-3.36212e-06
-1.28644e-05
-2.08036e-05
-4.73171e-06
5.34118e-07
3.34902e-06
5.23504e-07
1.79032e-06
-9.15249e-08
-2.30673e-07
-1.56849e-06
-3.64744e-06
-3.51887e-06
-1.0914e-05
-1.90895e-05
-5.23304e-06
6.42879e-07
2.70614e-06
7.17732e-07
1.71546e-06
2.1869e-07
2.68368e-07
-1.26146e-06
-2.16728e-06
-3.4785e-06
-8.69697e-06
-1.69356e-05
-5.63233e-06
6.99626e-07
2.00651e-06
9.06597e-07
1.50849e-06
5.9664e-07
5.78326e-07
-7.40915e-07
-8.29729e-07
-3.16761e-06
-6.27028e-06
-1.42196e-05
-5.88364e-06
7.30924e-07
1.27559e-06
1.08399e-06
1.15542e-06
1.01109e-06
6.51225e-07
6.61354e-08
1.1523e-07
-2.47144e-06
-3.7327e-06
-1.07803e-05
-5.91075e-06
7.34215e-07
5.41372e-07
1.23387e-06
6.55769e-07
1.41234e-06
4.7275e-07
1.04984e-06
4.77738e-07
-1.22652e-06
-1.45634e-06
-6.18835e-06
-5.81845e-06
5.41372e-07
1.19714e-06
1.66989e-06
2.14763e-06
6.91288e-07
-5.49706e-06
1.05894e-05
-2.85133e-05
1.2022e-05
-3.80082e-05
1.33465e-05
-4.2947e-05
1.45532e-05
-4.57167e-05
1.56285e-05
-4.72881e-05
1.65819e-05
-4.82263e-05
1.74447e-05
-4.88543e-05
1.82481e-05
-4.93459e-05
1.90141e-05
-4.97901e-05
1.97548e-05
-5.02282e-05
2.04753e-05
-5.06751e-05
2.1176e-05
-5.11329e-05
2.18544e-05
-5.15979e-05
2.2507e-05
-5.20639e-05
2.31303e-05
-5.25239e-05
2.37213e-05
-5.29698e-05
2.42776e-05
-5.33921e-05
2.47976e-05
-5.37793e-05
2.52809e-05
-5.41172e-05
2.57285e-05
-5.4388e-05
2.61442e-05
-5.45708e-05
2.65352e-05
-5.46393e-05
2.69172e-05
-5.45562e-05
-5.42662e-05
9.92212e-06
-3.02766e-05
1.1309e-05
-3.93951e-05
1.24481e-05
-4.40861e-05
1.33783e-05
-4.66469e-05
1.41592e-05
-4.80689e-05
1.48383e-05
-4.89054e-05
1.54536e-05
-4.94696e-05
1.60328e-05
-4.99251e-05
1.65923e-05
-5.03496e-05
1.71393e-05
-5.07753e-05
1.76751e-05
-5.12109e-05
1.81971e-05
-5.1655e-05
1.87017e-05
-5.21024e-05
1.91846e-05
-5.25468e-05
1.96421e-05
-5.29814e-05
2.00714e-05
-5.33991e-05
2.04707e-05
-5.37915e-05
2.08397e-05
-5.41483e-05
2.11794e-05
-5.44569e-05
2.14929e-05
-5.47016e-05
2.17858e-05
-5.48636e-05
2.20667e-05
-5.49202e-05
2.23523e-05
-5.48418e-05
-5.45891e-05
9.19896e-06
-3.22496e-05
1.04219e-05
-4.06181e-05
1.13218e-05
-4.4986e-05
1.19932e-05
-4.73183e-05
1.2521e-05
-4.85967e-05
1.29662e-05
-4.93506e-05
1.33678e-05
-4.98712e-05
1.37494e-05
-5.03067e-05
1.4123e-05
-5.07232e-05
1.44921e-05
-5.11443e-05
1.48551e-05
-5.15739e-05
1.52084e-05
-5.20083e-05
1.55474e-05
-5.24414e-05
1.5868e-05
-5.28674e-05
1.61667e-05
-5.32801e-05
1.64409e-05
-5.36733e-05
1.66896e-05
-5.40401e-05
1.69131e-05
-5.43718e-05
1.71138e-05
-5.46576e-05
1.72962e-05
-5.4884e-05
1.7467e-05
-5.50344e-05
1.76358e-05
-5.5089e-05
1.78197e-05
-5.50258e-05
-5.48202e-05
8.27602e-06
-3.41131e-05
9.33549e-06
-4.16775e-05
1.00099e-05
-4.56605e-05
1.04566e-05
-4.7765e-05
1.07688e-05
-4.89089e-05
1.10114e-05
-4.95932e-05
1.12236e-05
-5.00834e-05
1.14262e-05
-5.05093e-05
1.16277e-05
-5.09248e-05
1.18292e-05
-5.13458e-05
1.20277e-05
-5.17724e-05
1.2219e-05
-5.21996e-05
1.23988e-05
-5.26212e-05
1.25631e-05
-5.30317e-05
1.27089e-05
-5.34259e-05
1.28341e-05
-5.37985e-05
1.29376e-05
-5.41437e-05
1.30205e-05
-5.44547e-05
1.30856e-05
-5.47227e-05
1.31384e-05
-5.49368e-05
1.31863e-05
-5.50823e-05
1.32394e-05
-5.51421e-05
1.33162e-05
-5.51026e-05
-5.4954e-05
7.24048e-06
-3.57652e-05
8.11324e-06
-4.25503e-05
8.58238e-06
-4.61296e-05
8.82647e-06
-4.8009e-05
8.94693e-06
-4.90293e-05
9.00815e-06
-4.96544e-05
9.04766e-06
-5.01229e-05
9.08371e-06
-5.05453e-05
9.12236e-06
-5.09634e-05
9.16305e-06
-5.13865e-05
9.20247e-06
-5.18119e-05
9.23662e-06
-5.22337e-05
9.26176e-06
-5.26463e-05
9.27465e-06
-5.30446e-05
9.27268e-06
-5.34239e-05
9.25404e-06
-5.37798e-05
9.21801e-06
-5.41076e-05
9.16539e-06
-5.4402e-05
9.09907e-06
-5.46564e-05
9.02433e-06
-5.4862e-05
8.94821e-06
-5.50062e-05
8.87967e-06
-5.50736e-05
8.83936e-06
-5.50623e-05
-5.49886e-05
6.14679e-06
-3.71649e-05
6.80829e-06
-4.32118e-05
7.0836e-06
-4.64049e-05
7.14235e-06
-4.80678e-05
7.08787e-06
-4.89748e-05
6.98224e-06
-4.95488e-05
6.86031e-06
-5.0001e-05
6.73794e-06
-5.0423e-05
6.61948e-06
-5.0845e-05
6.50379e-06
-5.12708e-05
6.38774e-06
-5.16958e-05
6.26806e-06
-5.2114e-05
6.14182e-06
-5.25201e-05
6.00668e-06
-5.29095e-05
5.86082e-06
-5.32781e-05
5.70302e-06
-5.3622e-05
5.53282e-06
-5.39374e-05
5.35086e-06
-5.42201e-05
5.1594e-06
-5.4465e-05
4.96298e-06
-5.46656e-05
4.7678e-06
-5.4811e-05
4.574e-06
-5.48798e-05
4.36568e-06
-5.4854e-05
-5.49454e-05
5.01213e-06
-3.82797e-05
5.46024e-06
-4.36599e-05
5.54864e-06
-4.64933e-05
5.43474e-06
-4.79539e-05
5.21674e-06
-4.87568e-05
4.95377e-06
-4.92858e-05
4.67766e-06
-4.97249e-05
4.40203e-06
-5.01473e-05
4.13022e-06
-5.05732e-05
3.86102e-06
-5.10016e-05
3.5919e-06
-5.14267e-05
3.32042e-06
-5.18426e-05
3.04467e-06
-5.22443e-05
2.76327e-06
-5.26281e-05
2.4754e-06
-5.29902e-05
2.18076e-06
-5.33274e-05
1.87977e-06
-5.36365e-05
1.57371e-06
-5.3914e-05
1.26494e-06
-5.41562e-05
9.57385e-07
-5.43581e-05
6.61064e-07
-5.45147e-05
4.09207e-07
-5.46279e-05
2.5892e-07
-5.47037e-05
-5.45393e-05
3.86102e-06
-3.91e-05
4.09537e-06
-4.38942e-05
4.00378e-06
-4.64017e-05
3.72615e-06
-4.76763e-05
3.35273e-06
-4.83834e-05
2.93877e-06
-4.88719e-05
2.51314e-06
-4.92992e-05
2.08763e-06
-4.97218e-05
1.66501e-06
-5.01506e-05
1.24434e-06
-5.05809e-05
8.23789e-07
-5.10061e-05
4.01769e-07
-5.14205e-05
-2.28095e-08
-5.18198e-05
-4.50504e-07
-5.22004e-05
-8.81376e-07
-5.25593e-05
-1.31498e-06
-5.28938e-05
-1.75033e-06
-5.32011e-05
-2.18581e-06
-5.34785e-05
-2.61898e-06
-5.3723e-05
-3.04553e-06
-5.39315e-05
-3.45778e-06
-5.41024e-05
-3.85239e-06
-5.42333e-05
-4.2617e-06
-5.42944e-05
-5.42456e-05
2.70826e-06
-3.96301e-05
2.73323e-06
-4.39192e-05
2.46927e-06
-4.61378e-05
2.03452e-06
-4.72415e-05
1.51122e-06
-4.78601e-05
9.5053e-07
-4.83112e-05
3.78514e-07
-4.87272e-05
-1.9446e-07
-4.91489e-05
-7.65878e-07
-4.95791e-05
-1.33625e-06
-5.00106e-05
-1.9067e-06
-5.04357e-05
-2.47814e-06
-5.08491e-05
-3.05103e-06
-5.12469e-05
-3.62544e-06
-5.16259e-05
-4.20108e-06
-5.19837e-05
-4.7773e-06
-5.23176e-05
-5.3531e-06
-5.26253e-05
-5.92707e-06
-5.29046e-05
-6.49719e-06
-5.31529e-05
-7.06064e-06
-5.33681e-05
-7.61519e-06
-5.35479e-05
-8.16205e-06
-5.36864e-05
-8.69209e-06
-5.37643e-05
-5.38048e-05
1.56667e-06
-3.98845e-05
1.39004e-06
-4.37426e-05
9.60785e-07
-4.57085e-05
3.74174e-07
-4.66549e-05
-2.95034e-07
-4.71909e-05
-9.99466e-07
-4.76068e-05
-1.7155e-06
-4.80112e-05
-2.43388e-06
-4.84305e-05
-3.15214e-06
-4.88609e-05
-3.87028e-06
-4.92924e-05
-4.58878e-06
-4.97172e-05
-5.30795e-06
-5.01299e-05
-6.02779e-06
-5.0527e-05
-6.74804e-06
-5.09057e-05
-7.46821e-06
-5.12635e-05
-8.18759e-06
-5.15982e-05
-8.90524e-06
-5.19077e-05
-9.61982e-06
-5.219e-05
-1.03295e-05
-5.24432e-05
-1.10319e-05
-5.26657e-05
-1.17244e-05
-5.28554e-05
-1.24033e-05
-5.30075e-05
-1.30559e-05
-5.31118e-05
-5.32168e-05
4.47318e-07
-3.98796e-05
8.03304e-08
-4.33756e-05
-5.0917e-07
-4.5119e-05
-1.24356e-06
-4.59205e-05
-2.05532e-06
-4.63791e-05
-2.90095e-06
-4.67611e-05
-3.75886e-06
-4.71533e-05
-4.62061e-06
-4.75687e-05
-5.48355e-06
-4.79979e-05
-6.34716e-06
-4.84288e-05
-7.21133e-06
-4.8853e-05
-8.07582e-06
-4.92654e-05
-8.94022e-06
-4.96626e-05
-9.804e-06
-5.00419e-05
-1.06665e-05
-5.0401e-05
-1.15268e-05
-5.07378e-05
-1.2384e-05
-5.10505e-05
-1.32366e-05
-5.13374e-05
-1.40825e-05
-5.15973e-05
-1.49192e-05
-5.1829e-05
-1.57433e-05
-5.20312e-05
-1.65499e-05
-5.22009e-05
-1.73289e-05
-5.23328e-05
-5.24916e-05
-6.4555e-07
-3.96306e-05
-1.19024e-06
-4.28309e-05
-1.931e-06
-4.43782e-05
-2.80847e-06
-4.50431e-05
-3.75987e-06
-4.54277e-05
-4.74439e-06
-4.57766e-05
-5.74206e-06
-4.61556e-05
-6.74491e-06
-4.65659e-05
-7.75004e-06
-4.69928e-05
-8.7564e-06
-4.74225e-05
-9.76331e-06
-4.78461e-05
-1.07701e-05
-4.82587e-05
-1.17758e-05
-4.86568e-05
-1.27799e-05
-4.90379e-05
-1.37813e-05
-4.93996e-05
-1.47791e-05
-4.974e-05
-1.57722e-05
-5.00574e-05
-1.67589e-05
-5.03507e-05
-1.77372e-05
-5.0619e-05
-1.87041e-05
-5.08621e-05
-1.9656e-05
-5.10794e-05
-2.05878e-05
-5.12691e-05
-2.14911e-05
-5.14294e-05
-5.16364e-05
-1.69583e-06
-3.91575e-05
-2.40677e-06
-4.212e-05
-3.29452e-06
-4.34905e-05
-4.31163e-06
-4.40259e-05
-5.3999e-06
-4.43395e-05
-6.52093e-06
-4.46556e-05
-7.65603e-06
-4.50205e-05
-8.79744e-06
-4.54245e-05
-9.9419e-06
-4.58483e-05
-1.10879e-05
-4.62765e-05
-1.22341e-05
-4.66999e-05
-1.33795e-05
-4.71133e-05
-1.45229e-05
-4.75134e-05
-1.56633e-05
-4.78975e-05
-1.67997e-05
-4.82633e-05
-1.79309e-05
-4.86088e-05
-1.90556e-05
-4.89327e-05
-2.01723e-05
-4.9234e-05
-2.12785e-05
-4.95128e-05
-2.23715e-05
-4.97692e-05
-2.34473e-05
-5.00035e-05
-2.45012e-05
-5.02152e-05
-2.55259e-05
-5.04047e-05
-5.06556e-05
-2.69753e-06
-3.84823e-05
-3.56261e-06
-4.12549e-05
-4.59183e-06
-4.24613e-05
-5.74493e-06
-4.28728e-05
-6.96727e-06
-4.31171e-05
-8.2223e-06
-4.34006e-05
-9.49222e-06
-4.37506e-05
-1.07693e-05
-4.41474e-05
-1.20498e-05
-4.45678e-05
-1.33318e-05
-4.49945e-05
-1.46136e-05
-4.54181e-05
-1.58936e-05