/*--------------------------------*- C++ -*----------------------------------*\
  =========                 |
  \\      /  F ield         | OpenFOAM: The Open Source CFD Toolbox
   \\    /   O peration     | Website:  https://openfoam.org
    \\  /    A nd           | Version:  11
     \\/     M anipulation  |
\*---------------------------------------------------------------------------*/
FoamFile
{
    format      ascii;
    class       volVectorField;
    location    "1.44";
    object      U;
}
// * * * * * * * * * * * * * * * * * * * * * * * * * * * * * * * * * * * * * //

dimensions      [0 1 -1 0 0 0 0];

internalField   nonuniform List<vector> 
2880
(
(-0.00965235 0.0481548 -3.5724e-20)
(-0.0433039 0.0816733 5.0286e-20)
(-0.0602028 0.102034 3.99462e-19)
(-0.0375968 0.104862 -5.63668e-20)
(-0.0683261 0.110857 1.27658e-19)
(0.13071 0.0408425 -5.79332e-20)
(-0.0219578 0.0642858 3.55098e-19)
(-0.0542376 0.0912438 -1.57539e-20)
(-0.0663405 0.103918 1.21622e-20)
(-0.0427632 0.102077 0)
(-0.0503273 0.0791305 -1.41265e-19)
(0.0690396 0.0328327 9.74681e-20)
(-0.027002 0.073046 -1.63526e-21)
(-0.0553764 0.0967259 -1.45802e-20)
(-0.0676779 0.103513 1.8918e-19)
(-0.0486111 0.095111 1.67977e-20)
(-0.0461561 0.0618922 -1.41364e-20)
(0.0260311 0.0176532 0)
(-0.0314434 0.0812978 -2.65619e-19)
(-0.0571511 0.101744 -1.17841e-19)
(-0.0694942 0.103341 -1.65982e-19)
(-0.0560694 0.0893344 0)
(-0.0510879 0.0506861 -4.17773e-20)
(-0.0076766 0.00634999 -3.4867e-20)
(-0.036174 0.090662 0)
(-0.0599439 0.106467 1.04661e-19)
(-0.0725116 0.10374 4.86572e-21)
(-0.0645995 0.0852354 -1.18567e-20)
(-0.0605004 0.0441421 5.93414e-20)
(-0.0360607 -0.000840012 0)
(-0.0420209 0.0984023 2.79902e-22)
(-0.0636054 0.11074 7.82621e-22)
(-0.0766046 0.104824 -6.11052e-22)
(-0.0737308 0.0829648 7.82668e-21)
(-0.0721899 0.0410627 6.63982e-21)
(-0.0602175 -0.00442551 5.65229e-21)
(-0.0482238 0.10516 1.65903e-19)
(-0.0680777 0.114438 -1.0309e-19)
(-0.0813202 0.10664 -7.38307e-20)
(-0.0830428 0.0825077 -7.62808e-21)
(-0.0846645 0.0405777 -5.9626e-20)
(-0.0807112 -0.00509156 -5.58437e-21)
(-0.0530476 0.112732 -1.78436e-19)
(-0.0725429 0.117814 1.04231e-19)
(-0.0862476 0.109187 7.90305e-20)
(-0.0921234 0.0837757 -7.80803e-21)
(-0.0968799 0.0421629 5.24803e-20)
(-0.0978668 -0.00357865 -1.14762e-20)
(-0.0556397 0.120259 3.61679e-19)
(-0.0762844 0.121189 -1.97117e-19)
(-0.09098 0.112521 1.50861e-19)
(-0.100583 0.0866812 0)
(-0.108131 0.0455152 0)
(-0.111917 -0.000544519 1.18529e-19)
(-0.0585892 0.125013 -3.61363e-19)
(-0.079201 0.124743 1.04524e-20)
(-0.0951841 0.116714 -1.77531e-19)
(-0.108076 0.0911692 1.58853e-20)
(-0.117929 0.0504911 -2.70941e-20)
(-0.12295 0.00370176 -7.09926e-20)
(-0.0618746 0.128851 -2.27261e-20)
(-0.0812791 0.128505 2.08774e-19)
(-0.0985639 0.121818 3.06332e-19)
(-0.114307 0.0972258 -3.2006e-20)
(-0.125921 0.0570735 -2.2765e-19)
(-0.130932 0.00912717 7.435e-20)
(-0.0650301 0.131724 0)
(-0.0823693 0.132429 0)
(-0.100851 0.127871 -3.06274e-19)
(-0.11903 0.104876 0)
(-0.131877 0.0653437 2.29511e-19)
(-0.135886 0.0158406 0)
(-0.0674093 0.133425 -2.30695e-20)
(-0.0823326 0.13648 4.17083e-19)
(-0.101818 0.134899 3.16434e-19)
(-0.12205 0.114173 2.73583e-19)
(-0.135636 0.0754722 -2.43982e-19)
(-0.137834 0.0240564 2.19677e-19)
(-0.0682246 0.134078 0)
(-0.0810901 0.140642 -4.07488e-19)
(-0.10129 0.142901 -3.59125e-19)
(-0.123219 0.125184 -2.41398e-19)
(-0.137092 0.0877003 2.4676e-19)
(-0.136851 0.0341102 6.3636e-20)
(-0.0669419 0.134236 2.26662e-20)
(-0.0786534 0.144916 -1.29938e-20)
(-0.0991523 0.151828 3.72426e-19)
(-0.122438 0.137948 -3.56648e-20)
(-0.136182 0.10232 0)
(-0.133118 0.0464113 8.73765e-21)
(-0.0620182 0.135149 0)
(-0.0751966 0.149278 0)
(-0.0953725 0.161547 -2.92807e-19)
(-0.119652 0.152444 2.64744e-19)
(-0.132871 0.119666 -6.83545e-20)
(-0.126944 0.0614289 -1.22065e-19)
(-0.0527411 0.135172 7.03713e-19)
(-0.0711691 0.153398 0)
(-0.0900044 0.171745 -4.42512e-20)
(-0.114847 0.168522 -3.07787e-19)
(-0.127166 0.140119 -1.8146e-19)
(-0.118777 0.0796113 1.3977e-19)
(-0.0475693 0.129949 -1.23234e-18)
(-0.0669482 0.156318 -4.4274e-19)
(-0.083101 0.181857 0)
(-0.107997 0.185852 0)
(-0.119134 0.164055 -7.79078e-21)
(-0.109432 0.101325 -6.34193e-19)
(-0.0454592 0.121136 -2.6108e-21)
(-0.0622128 0.157218 -2.68435e-21)
(-0.0745677 0.191208 -3.74406e-19)
(-0.0989612 0.203928 0)
(-0.108687 0.191563 3.07076e-19)
(-0.0999063 0.127113 3.66809e-19)
(-0.042236 0.110103 5.85541e-19)
(-0.0563905 0.155616 9.38627e-19)
(-0.0642003 0.199121 3.87799e-19)
(-0.0874874 0.2219 0)
(-0.0952975 0.222704 8.39731e-20)
(-0.0909339 0.157071 3.36691e-22)
(-0.0374552 0.0975918 -9.49519e-21)
(-0.0493238 0.151325 -4.61251e-19)
(-0.0519058 0.204967 -2.49219e-20)
(-0.0733351 0.238437 0)
(-0.0777357 0.258145 0)
(-0.0817283 0.190772 2.65483e-19)
(-0.033707 0.0853191 6.28446e-19)
(-0.04135 0.144481 5.42566e-19)
(-0.0380605 0.208255 -4.35241e-19)
(-0.0566941 0.251714 0)
(-0.0540124 0.298491 0)
(-0.068233 0.227764 -3.52193e-19)
(-0.0302713 0.0714254 -2.92076e-20)
(-0.0326585 0.134361 -5.53671e-19)
(-0.0235248 0.2078 4.08384e-19)
(-0.0392558 0.258132 4.99257e-20)
(-0.0221095 0.344125 -4.87575e-19)
(-0.0455946 0.265812 4.82898e-19)
(-0.0260798 0.04343 -8.0766e-19)
(-0.0261475 0.105433 -6.02167e-19)
(-0.0092143 0.18873 4.97381e-19)
(-0.0186458 0.235405 5.78317e-20)
(0.0240685 0.38386 3.56039e-19)
(-0.0241335 0.283143 -8.17532e-19)
(-0.102005 -0.206123 -3.81676e-19)
(-0.15125 -0.120376 1.30299e-19)
(-0.07297 -0.0464885 -5.1238e-20)
(0.0248521 0.0184885 1.36154e-19)
(0.136219 0.0700846 0)
(0.248711 0.110466 1.6179e-19)
(0.357132 0.141101 3.62908e-20)
(0.458278 0.16346 -3.6185e-20)
(0.550452 0.178861 3.04829e-20)
(0.63311 0.188471 -2.29214e-20)
(0.706209 0.193287 -1.82191e-20)
(0.770156 0.194136 -2.6152e-20)
(0.825641 0.191757 2.37627e-20)
(0.873521 0.186811 -8.74789e-21)
(0.914694 0.179852 1.12565e-20)
(0.950065 0.171352 -2.65096e-21)
(0.980511 0.161739 -1.09236e-20)
(1.00688 0.15139 7.11059e-21)
(1.02984 0.140695 -7.99853e-21)
(1.05033 0.129923 -1.55254e-21)
(1.06809 0.119643 1.75707e-21)
(1.08614 0.109498 -5.77907e-22)
(1.0978 0.101083 4.77615e-22)
(1.12568 0.0900651 6.71176e-22)
(-0.0345598 -0.173521 1.68504e-19)
(-0.108026 -0.126393 -2.49417e-19)
(-0.0686721 -0.0720039 1.00966e-19)
(-0.00374174 -0.0167426 1.19886e-19)
(0.0800715 0.0301055 2.94473e-20)
(0.1698 0.0689479 2.25831e-20)
(0.259664 0.10033 -6.58426e-20)
(0.346083 0.125095 -3.10137e-21)
(0.426857 0.144017 -5.59804e-20)
(0.500809 0.157861 0)
(0.567555 0.167298 1.57713e-20)
(0.627049 0.172919 -2.871e-20)
(0.679578 0.175264 -1.07559e-20)
(0.725656 0.174802 -8.14778e-21)
(0.765935 0.171959 0)
(0.801096 0.167151 0)
(0.831818 0.160754 3.13712e-21)
(0.858819 0.153117 -1.92113e-21)
(0.882717 0.14459 1.15779e-21)
(0.904319 0.135522 4.12254e-22)
(0.923702 0.126304 0)
(0.942875 0.117153 1.89898e-21)
(0.958412 0.108705 -2.25912e-21)
(0.982967 0.0977112 -9.1226e-22)
(-0.0263482 -0.137025 3.50968e-20)
(-0.0902219 -0.119711 -2.5418e-20)
(-0.0707213 -0.0853901 -1.00311e-19)
(-0.0280104 -0.0423866 -8.06482e-20)
(0.033307 -0.00281558 -6.46207e-20)
(0.102408 0.032247 -5.16899e-20)
(0.173971 0.0624989 -2.12377e-20)
(0.244423 0.0880888 -1.76863e-20)
(0.311553 0.109344 2.81501e-20)
(0.373926 0.126593 2.28825e-20)
(0.430796 0.140229 0)
(0.481859 0.150536 1.33327e-20)
(0.527102 0.157824 2.00831e-20)
(0.566729 0.162387 -9.78217e-22)
(0.601143 0.164494 0)
(0.630909 0.164355 7.64259e-21)
(0.656633 0.162178 -1.05271e-20)
(0.678985 0.158215 4.9895e-21)
(0.698637 0.152721 -2.96037e-21)
(0.716316 0.146008 1.17369e-22)
(0.732608 0.138379 -6.02665e-22)
(0.748339 0.130363 3.63055e-22)
(0.763514 0.122127 1.49757e-22)
(0.778522 0.112871 2.77337e-22)
(-0.0395632 -0.112966 -5.21026e-20)
(-0.0872881 -0.111711 5.88004e-20)
(-0.0782164 -0.0926861 0)
(-0.0493288 -0.061605 0)
(-0.00461788 -0.0298777 3.01671e-20)
(0.047619 0.000401781 0)
(0.102933 0.0283394 5.82185e-20)
(0.158213 0.0536331 -1.55988e-21)
(0.211402 0.0761841 -2.57505e-20)
(0.261177 0.0960558 -1.00469e-20)
(0.306695 0.113259 2.32868e-20)
(0.347541 0.127846 -2.76538e-20)
(0.38355 0.13989 -9.21944e-22)
(0.414823 0.149391 -9.07873e-21)
(0.441608 0.156363 0)
(0.464333 0.160824 4.08505e-21)
(0.483588 0.162785 2.13885e-21)
(0.500059 0.162269 -2.73802e-21)
(0.514498 0.159329 0)
(0.527693 0.154131 -1.36778e-21)
(0.540437 0.147004 1.64841e-21)
(0.553381 0.138618 0)
(0.56619 0.129849 -1.47877e-22)
(0.575256 0.121083 0)
(-0.0581177 -0.0951778 6.64797e-20)
(-0.0926423 -0.105388 4.16345e-20)
(-0.0880377 -0.0978626 -1.04962e-20)
(-0.0671508 -0.0772019 0)
(-0.0334468 -0.0528612 -2.30091e-20)
(0.00664581 -0.0274563 -6.36713e-21)
(0.0494007 -0.00228058 0)
(0.0922157 0.0220722 -2.24533e-20)
(0.133358 0.0452042 9.5937e-22)
(0.171739 0.0668665 1.52773e-20)
(0.206673 0.0868325 -7.58066e-22)
(0.237796 0.104923 -3.83379e-21)
(0.264927 0.120929 0)
(0.288182 0.134628 1.90325e-21)
(0.307833 0.145764 -2.75474e-21)
(0.324271 0.154033 2.62926e-21)
(0.338025 0.159133 -3.01456e-21)
(0.349741 0.160807 2.88654e-21)
(0.360153 0.158888 -4.66091e-22)
(0.370069 0.15339 0)
(0.380358 0.144658 -5.90364e-22)
(0.391585 0.133604 8.77195e-22)
(0.402558 0.12179 2.85328e-22)
(0.409095 0.111227 -1.11365e-21)
(-0.0769263 -0.0817602 -9.76177e-21)
(-0.101188 -0.100895 1.70196e-21)
(-0.0973682 -0.102794 2.20814e-20)
(-0.0802471 -0.0911622 2.29729e-21)
(-0.0528788 -0.0735247 1.90625e-21)
(-0.0203879 -0.0526898 0)
(0.0140967 -0.0302317 0)
(0.0484188 -0.00705833 -1.66221e-21)
(0.0810788 0.0161096 2.87933e-21)
(0.111203 0.0387876 -1.24259e-21)
(0.138341 0.0605668 0)
(0.162329 0.0810539 -9.9336e-22)
(0.18324 0.0998215 3.25863e-22)
(0.201244 0.116371 -2.8817e-21)
(0.216668 0.130191 -3.18645e-22)
(0.229924 0.140735 3.69336e-22)
(0.241491 0.147454 4.75829e-22)
(0.251889 0.149854 0)
(0.261706 0.147612 4.60066e-22)
(0.271519 0.140675 8.81397e-23)
(0.281865 0.129434 -1.11955e-22)
(0.292933 0.114996 2.88561e-22)
(0.303521 0.0997106 5.60943e-23)
(0.311792 0.0881132 0)
(-0.0938695 -0.0718579 7.81716e-21)
(-0.109777 -0.0984168 3.18011e-20)
(-0.103887 -0.10838 -5.58811e-21)
(-0.0870649 -0.104585 -4.3561e-21)
(-0.0620956 -0.0929394 -1.35401e-20)
(-0.0331822 -0.0763061 0)
(-0.00294553 -0.056463 -4.37982e-21)
(0.0268917 -0.0346004 -3.68296e-21)
(0.0553256 -0.0115323 0)
(0.0817001 0.0119396 -3.87618e-21)
(0.105675 0.0350952 2.95585e-21)
(0.127183 0.0572733 -3.47207e-21)
(0.146324 0.0778465 -5.31382e-22)
(0.163325 0.0961876 0)
(0.178495 0.111651 -1.31198e-21)
(0.192194 0.123583 -2.51113e-22)
(0.204783 0.13134 0)
(0.216621 0.134342 0)
(0.228015 0.132167 0)
(0.239291 0.124721 -8.80405e-23)
(0.250756 0.11244 5.13989e-22)
(0.262507 0.0965798 -4.28639e-22)
(0.27428 0.0800068 -5.62287e-23)
(0.286139 0.0687463 -6.35088e-23)
(-0.107911 -0.0645794 8.52521e-20)
(-0.115988 -0.0979648 -3.85912e-20)
(-0.105771 -0.11506 0)
(-0.0861934 -0.11808 0)
(-0.0601413 -0.111688 1.35179e-20)
(-0.0312305 -0.0987538 0)
(-0.00170233 -0.0812839 1.56659e-20)
(0.0270498 -0.0607467 -6.87342e-21)
(0.0542615 -0.0382561 0)
(0.0795779 -0.0147301 3.86098e-21)
(0.102885 0.00901924 4.86435e-21)
(0.124231 0.0321973 -4.60482e-21)
(0.143794 0.0540179 0)
(0.161802 0.0736826 -1.75394e-21)
(0.178507 0.0903974 9.8668e-22)
(0.194196 0.103399 0)
(0.209158 0.111996 0)
(0.223656 0.115594 0)
(0.237918 0.113748 0)
(0.252119 0.106286 -5.05204e-22)
(0.266365 0.0935433 4.87031e-22)
(0.28088 0.0768091 0)
(0.296795 0.0593422 -1.10288e-21)
(0.315838 0.0477747 1.15665e-21)
(-0.118599 -0.0591455 -7.84036e-20)
(-0.118202 -0.0990559 -1.03044e-19)
(-0.101418 -0.122895 0)
(-0.0761138 -0.131963 1.543e-20)
(-0.0457821 -0.130106 -1.41381e-20)
(-0.0136992 -0.120272 -2.08178e-20)
(0.0182125 -0.104726 -1.68196e-20)
(0.0488848 -0.0852157 2.14865e-20)
(0.0778366 -0.0631016 7.42234e-21)
(0.104956 -0.0395014 -1.79445e-20)
(0.130346 -0.0153988 7.50783e-21)
(0.154232 0.00832803 -2.1262e-22)
(0.176899 0.0308431 7.93884e-21)
(0.198666 0.0513296 1.74898e-21)
(0.219841 0.0689911 0)
(0.240698 0.0830576 -1.62085e-21)
(0.261464 0.0928238 1.47272e-21)
(0.28232 0.0976744 7.08168e-22)
(0.3034 0.097122 -6.80993e-22)
(0.324778 0.0909034 -5.21581e-22)
(0.34645 0.0791832 4.36117e-22)
(0.368585 0.0630456 6.42937e-23)
(0.392318 0.0455664 0)
(0.420439 0.033168 0)
(-0.125456 -0.0549901 3.04209e-20)
(-0.115557 -0.101607 1.83569e-19)
(-0.0892246 -0.131814 0)
(-0.0551039 -0.146158 -6.60199e-20)
(-0.0174071 -0.148006 -2.70718e-20)
(0.0207544 -0.140531 1.78013e-20)
(0.0577638 -0.126327 0)
(0.0929083 -0.107449 -2.15243e-20)
(0.126043 -0.0855004 0)
(0.157333 -0.0617656 1.09759e-20)
(0.187111 -0.0373359 -1.27338e-20)
(0.215778 -0.0131756 -4.93071e-21)
(0.243752 0.00983713 -3.05914e-21)
(0.271446 0.0308816 0)
(0.299223 0.0491848 0)
(0.327375 0.0640078 0)
(0.356103 0.0746847 8.52959e-24)
(0.38555 0.0806449 -8.26698e-22)
(0.415775 0.0814178 0)
(0.446734 0.0767099 -2.74834e-22)
(0.478235 0.0665273 3.12908e-22)
(0.5103 0.0515612 -3.66928e-22)
(0.543432 0.0342876 -5.50368e-22)
(0.582119 0.0213894 0)
(-0.128104 -0.0517236 -3.34242e-20)
(-0.106576 -0.105214 -1.07144e-19)
(-0.0674425 -0.141547 3.97507e-20)
(-0.0211941 -0.160248 -3.58081e-20)
(0.026889 -0.164733 5.04236e-20)
(0.0737697 -0.158611 0)
(0.11818 -0.144941 0)
(0.159823 -0.12611 -1.69629e-20)
(0.198936 -0.103949 -8.71494e-22)
(0.236021 -0.0799177 -3.04884e-21)
(0.27168 -0.0551989 5.23899e-21)
(0.306505 -0.0308072 8.00848e-22)
(0.341065 -0.00763925 2.94638e-23)
(0.375852 0.0135113 1.56555e-21)
(0.411251 0.0319382 -2.13566e-21)
(0.44754 0.0469858 0)
(0.484895 0.0580629 3.60306e-21)
(0.523389 0.0647139 -2.56109e-21)
(0.562959 0.0665892 0)
(0.603399 0.0634579 3.46059e-22)
(0.644275 0.0553167 0)
(0.685552 0.0426418 2.03606e-21)
(0.726333 0.0271371 -2.20938e-21)
(0.774861 0.0156671 1.29481e-21)
(-0.126489 -0.048638 0)
(-0.0900522 -0.109612 2.78613e-19)
(-0.0341613 -0.151614 -4.71286e-20)
(0.0277706 -0.173432 9.67587e-20)
(0.0891349 -0.17909 -7.11657e-20)
(0.146995 -0.172956 4.01728e-20)
(0.200583 -0.158694 0)
(0.250195 -0.139115 -1.26915e-20)
(0.296586 -0.116309 2.83582e-20)
(0.340601 -0.0917983 -2.23525e-20)
(0.383077 -0.066804 2.75355e-21)
(0.424764 -0.0423218 -8.05445e-22)
(0.466334 -0.0191971 8.97924e-21)
(0.508283 0.00181208 1.28408e-21)
(0.550992 0.0200515 -1.62522e-20)
(0.594722 0.0349866 1.10444e-20)
(0.639579 0.046163 -5.38036e-21)
(0.685513 0.0532232 4.54055e-21)
(0.732288 0.0559709 0)
(0.779576 0.0543488 0)
(0.826695 0.0484115 5.78302e-21)
(0.874069 0.0387372 -3.37143e-21)
(0.91792 0.0260394 -1.26858e-21)
(0.975567 0.0184456 1.76931e-21)
(-0.119998 -0.0456473 -3.40986e-20)
(-0.0645448 -0.114455 -1.98345e-19)
(0.0127755 -0.161283 0)
(0.0940621 -0.184425 0)
(0.171261 -0.189307 -4.25618e-20)
(0.241942 -0.181552 1.04836e-19)
(0.306163 -0.165524 0)
(0.364763 -0.144246 2.99908e-20)
(0.418962 -0.120009 -1.75833e-20)
(0.469931 -0.0945031 1.23245e-20)
(0.518818 -0.0689778 3.21275e-22)
(0.566548 -0.0444002 4.46377e-22)
(0.613871 -0.0215458 2.31557e-21)
(0.661348 -0.00106283 -7.23092e-21)
(0.709393 0.0165419 5.18896e-21)
(0.758235 0.0308868 1.49563e-21)
(0.807885 0.0416561 1.70671e-20)
(0.858295 0.0486694 -1.5762e-20)
(0.909041 0.0519047 4.78673e-21)
(0.959768 0.051463 -3.84289e-21)
(1.00958 0.0472767 -2.31322e-21)
(1.06001 0.0405712 0)
(1.10178 0.0297198 2.08211e-21)
(1.16937 0.0265759 -2.50703e-21)
(-0.108311 -0.0423777 -3.45185e-19)
(-0.0283576 -0.119271 0)
(0.0757998 -0.169421 4.193e-20)
(0.17997 -0.191457 -3.79684e-20)
(0.27517 -0.193327 0)
(0.359811 -0.181943 -9.36883e-20)
(0.43449 -0.162448 4.22657e-20)
(0.500987 -0.138506 -1.57349e-20)
(0.561398 -0.112506 -7.96999e-21)
(0.617544 -0.0859945 7.48659e-21)
(0.670912 -0.0600621 -3.07707e-21)
(0.722626 -0.0355962 0)
(0.773552 -0.0132332 -6.77565e-21)
(0.824286 0.00651658 0)
(0.875277 0.0232193 2.53612e-20)
(0.926616 0.0366293 -2.42025e-20)
(0.9782 0.0465557 0)
(1.03014 0.0528685 0)
(1.08149 0.0554518 -1.11118e-20)
(1.13289 0.0546327 3.87368e-21)
(1.1817 0.0503971 -4.85337e-21)
(1.2283 0.0454945 4.54854e-21)
(1.26014 0.0355622 4.27411e-21)
(1.31552 0.0378597 -4.73662e-21)
(-0.091028 -0.0386131 6.24037e-20)
(0.0207614 -0.123385 -3.25056e-19)
(0.157679 -0.17434 4.28156e-20)
(0.287764 -0.192187 -9.88798e-20)
(0.401428 -0.188229 1.47458e-19)
(0.497997 -0.171366 0)
(0.580243 -0.147702 5.17961e-20)
(0.651935 -0.120749 -1.42092e-20)
(0.716161 -0.0927825 0)
(0.775286 -0.0652865 0)
(0.830911 -0.0391779 3.10865e-21)
(0.884244 -0.0151915 -1.60691e-20)
(0.936245 0.00612152 1.73068e-20)
(0.987365 0.0243682 0)
(1.03826 0.0393185 1.94144e-20)
(1.08858 0.0505878 -4.62782e-20)
(1.13895 0.0582278 -8.4329e-21)
(1.18752 0.0623208 2.41377e-20)
(1.23146 0.0631167 2.0481e-20)
(1.26824 0.0614139 -6.17292e-21)
(1.29622 0.0574086 -1.88862e-21)
(1.31827 0.0535927 -4.4936e-21)
(1.33173 0.0442262 1.14519e-21)
(1.36475 0.0494032 1.19236e-20)
(-0.0675544 -0.0342703 -5.69028e-20)
(0.0859037 -0.125433 5.33515e-20)
(0.261511 -0.173524 -5.43507e-20)
(0.417958 -0.183526 5.98063e-20)
(0.546429 -0.171459 -1.08836e-19)
(0.650587 -0.148228 -1.16107e-20)
(0.736722 -0.11999 -5.94028e-20)
(0.810305 -0.0903581 -1.77808e-20)
(0.875098 -0.0612493 0)
(0.933689 -0.0337646 0)
(0.987792 -0.0086318 5.41177e-21)
(1.03867 0.0135759 -5.27567e-22)
(1.08756 0.0324932 -3.97481e-20)
(1.13471 0.0476175 -1.76533e-21)
(1.18124 0.0591984 2.01427e-20)
(1.22336 0.0670426 9.84624e-21)
(1.25809 0.0714184 9.23942e-21)
(1.28478 0.0728537 -2.7213e-20)
(1.30542 0.0718511 6.98605e-22)
(1.32115 0.0689182 1.77031e-20)
(1.3329 0.0641702 6.60914e-21)
(1.34137 0.0587504 -2.49425e-20)
(1.34783 0.0495389 1.87079e-20)
(1.36896 0.0563087 -5.78635e-21)
(-0.0364591 -0.0296301 3.95831e-19)
(0.171159 -0.122685 2.73586e-19)
(0.38914 -0.163272 0)
(0.567485 -0.162261 0)
(0.704408 -0.141125 0)
(0.809933 -0.111896 0)
(0.894251 -0.080664 -2.56612e-20)
(0.964268 -0.0501733 5.79825e-20)
(1.02427 -0.0218766 -2.51746e-21)
(1.07693 0.00349434 7.37538e-21)
(1.12411 0.0254905 -8.79824e-21)
(1.16729 0.0436773 1.73189e-20)
(1.20815 0.0581974 -8.89168e-22)
(1.24367 0.068751 0)
(1.27004 0.0753429 0)
(1.28979 0.0789108 0)
(1.30473 0.0797983 -1.1872e-20)
(1.31607 0.0783954 1.13704e-20)
(1.325 0.0750488 0)
(1.3322 0.0704879 2.79726e-20)
(1.33822 0.0647655 -7.83755e-20)
(1.34174 0.0581681 3.22463e-20)
(1.34133 0.0533587 -8.38835e-21)
(1.34815 0.0630143 3.22753e-21)
(0.00481538 -0.0243661 -4.23898e-19)
(0.282316 -0.110975 -2.12391e-19)
(0.539449 -0.139431 -2.01627e-19)
(0.730192 -0.126067 -1.91377e-19)
(0.864801 -0.0975758 1.3737e-19)
(0.962674 -0.0655394 0)
(1.03798 -0.034363 0)
(1.09811 -0.00613515 -1.6915e-21)
(1.14745 0.0184156 -1.59344e-21)
(1.18865 0.0389158 1.78166e-21)
(1.22384 0.0552946 -1.11871e-20)
(1.25459 0.067896 -4.08211e-20)
(1.27639 0.0761139 4.32881e-20)
(1.29175 0.0812873 -2.29857e-20)
(1.30235 0.0836408 0)
(1.3101 0.0836136 0)
(1.3161 0.0816613 1.19444e-20)
(1.32164 0.0784126 -1.95563e-22)
(1.32623 0.0738731 -5.9206e-20)
(1.32879 0.0680994 6.766e-20)
(1.32784 0.0618023 -3.3278e-20)
(1.32275 0.0554565 -3.9361e-20)
(1.31251 0.0536465 4.51844e-20)
(1.30866 0.0656819 4.47568e-21)
(0.0604618 -0.0171472 -5.8698e-20)
(0.424316 -0.084791 -3.71836e-21)
(0.706503 -0.0984609 2.0398e-19)
(0.892339 -0.0761288 2.63874e-19)
(1.01137 -0.0454294 -5.05776e-20)
(1.09388 -0.0150511 -8.0342e-20)
(1.15428 0.0120217 0)
(1.19979 0.0347553 -2.70688e-20)
(1.23457 0.0530402 0)
(1.26127 0.0668432 2.54439e-21)
(1.2819 0.0768274 -2.61474e-21)
(1.29475 0.0829596 3.12746e-20)
(1.3026 0.0862314 3.95058e-20)
(1.30743 0.0874108 -2.54802e-20)
(1.31041 0.0864638 0)
(1.31344 0.0842544 1.53472e-20)
(1.31596 0.0807465 0)
(1.31657 0.0758363 4.19536e-20)
(1.31467 0.0702598 -1.45705e-20)
(1.30992 0.0643385 -1.39907e-20)
(1.30213 0.0582213 -4.82939e-20)
(1.29128 0.0526905 5.86565e-20)
(1.2779 0.0519509 0)
(1.26453 0.067283 0)
(0.138496 -0.00403563 7.60909e-19)
(0.594911 -0.0393294 3.01941e-19)
(0.874683 -0.0412892 0)
(1.03491 -0.0175118 -1.29766e-19)
(1.13096 0.00900599 3.2454e-20)
(1.1943 0.0333133 3.11069e-22)
(1.23761 0.0532781 1.71876e-20)
(1.26739 0.0687156 1.88039e-20)
(1.28742 0.0798772 -5.93582e-21)
(1.30052 0.0872653 6.88607e-21)
(1.30725 0.0911595 0)
(1.31002 0.0928862 -2.61404e-20)
(1.31049 0.0921942 0)
(1.31017 0.0903111 3.21665e-20)
(1.31003 0.0876204 -8.35563e-20)
(1.30841 0.0836251 -1.73185e-20)
(1.30501 0.0785938 5.01114e-20)
(1.29985 0.0729507 -3.24139e-20)
(1.293 0.0669614 1.41693e-20)
(1.28433 0.0609468 -2.15129e-21)
(1.27338 0.0551863 -1.51045e-20)
(1.25963 0.0506929 -1.22979e-20)
(1.24351 0.0520485 -1.52699e-20)
(1.22347 0.0681096 0)
(0.25127 0.0267629 -2.63085e-19)
(0.775531 0.0258134 -8.24122e-20)
(1.02218 0.026612 0)
(1.14687 0.0433146 6.19834e-20)
(1.21935 0.0613705 7.57097e-21)
(1.26418 0.0768735 -2.66094e-20)
(1.29168 0.0884959 1.76635e-20)
(1.30752 0.0963441 -4.62872e-21)
(1.3153 0.100859 4.25804e-21)
(1.31774 0.102756 -1.7373e-20)
(1.31647 0.102171 3.81168e-20)
(1.31372 0.100405 5.56992e-22)
(1.31002 0.0976019 -1.8871e-20)
(1.30582 0.0936868 0)
(1.30064 0.0887137 -2.62802e-21)
(1.29448 0.0830268 0)
(1.28752 0.076962 -5.51464e-20)
(1.27973 0.070764 7.23173e-20)
(1.27085 0.0647136 -7.21371e-20)
(1.26036 0.0590843 1.5413e-20)
(1.24741 0.0540257 4.65431e-20)
(1.23127 0.0506522 6.54412e-20)
(1.21236 0.0538604 -2.98041e-20)
(1.18864 0.0697034 0)
(0.412785 0.0927612 0)
(0.937532 0.105524 6.06397e-20)
(1.13421 0.098956 -5.2991e-20)
(1.22693 0.102996 -1.10798e-19)
(1.2795 0.109984 9.01823e-20)
(1.30884 0.115629 -4.9994e-20)
(1.32322 0.118788 -2.79379e-20)
(1.32795 0.119455 8.28821e-21)
(1.32663 0.118052 -1.54548e-20)
(1.32259 0.115579 -1.4637e-20)
(1.31617 0.111626 -1.85962e-20)
(1.30915 0.106929 -3.71958e-21)
(1.30181 0.101569 -2.54987e-21)
(1.29424 0.0956397 2.00569e-20)
(1.28652 0.0893553 4.28663e-20)
(1.27861 0.0829215 -4.33354e-20)
(1.2703 0.0765096 4.1057e-20)
(1.26123 0.070283 0)
(1.25097 0.0644363 1.84214e-20)
(1.2389 0.0591261 0)
(1.22412 0.054497 0)
(1.206 0.0518081 9.45505e-20)
(1.18514 0.0561614 -6.93404e-20)
(1.15943 0.0718488 1.86668e-20)
(0.623522 0.203256 0)
(1.05559 0.194687 2.10985e-19)
(1.20626 0.169604 3.03149e-20)
(1.27831 0.158712 -2.7025e-20)
(1.31623 0.153815 3.90032e-20)
(1.33348 0.149715 1.13269e-20)
(1.33771 0.144705 1.04965e-20)
(1.33461 0.139355 -6.09147e-21)
(1.3275 0.132972 1.35036e-20)
(1.31841 0.126124 0)
(1.30875 0.119107 -7.90966e-22)
(1.29922 0.112024 -3.06523e-22)
(1.28997 0.104915 0)
(1.28101 0.0978469 -4.97677e-20)
(1.27217 0.0908632 2.43626e-20)
(1.2632 0.0840135 2.56337e-20)
(1.25376 0.0773699 2.50652e-20)
(1.24348 0.0710461 0)
(1.23191 0.0652311 0)
(1.21846 0.0600558 4.25798e-20)
(1.20226 0.0556344 -1.88222e-20)
(1.18281 0.0532923 -8.30678e-20)
(1.1607 0.0581147 2.07003e-20)
(1.13377 0.0730083 -1.84613e-20)
(0.839784 0.359451 0)
(1.12157 0.28299 -2.0606e-19)
(1.24381 0.231873 0)
(1.30573 0.207052 2.42775e-20)
(1.33405 0.191307 -4.93197e-20)
(1.34251 0.178537 2.58741e-20)
(1.33981 0.166905 1.48166e-21)
(1.33139 0.155894 0)
(1.32048 0.145398 0)
(1.30903 0.135488 0)
(1.29781 0.126153 3.67305e-20)
(1.28715 0.117336 1.45631e-20)
(1.27703 0.108969 -1.35092e-20)
(1.26727 0.100982 4.14489e-20)
(1.25762 0.0933318 -5.57949e-20)
(1.2478 0.0860116 2.74669e-20)
(1.23749 0.0790595 -2.46758e-20)
(1.22632 0.0725657 5.13027e-20)
(1.21385 0.0666831 -9.80809e-20)
(1.19946 0.0615001 9.45152e-20)
(1.18237 0.0570739 -6.67521e-20)
(1.16211 0.0547539 2.12808e-20)
(1.13924 0.0595709 0)
(1.11175 0.0733983 -2.4474e-20)
(-0.0815972 -0.0649652 0)
(-0.130466 -0.159427 0)
(-0.121988 -0.154715 -3.12648e-20)
(-0.0648634 -0.038594 2.53863e-20)
(0.0439275 0.101844 -1.83933e-19)
(0.233855 0.542136 1.60749e-19)
(-0.115135 -0.0987448 -3.65233e-19)
(-0.134932 -0.15285 1.64867e-20)
(-0.0910759 -0.115701 -1.26094e-20)
(-0.00549174 0.00525536 0)
(0.131588 0.156628 2.04415e-19)
(0.370806 0.409067 -1.53749e-19)
(-0.134712 -0.104438 1.13765e-22)
(-0.126459 -0.135884 1.49586e-20)
(-0.0531923 -0.0840669 -1.95958e-19)
(0.0632004 0.0320292 -1.96307e-20)
(0.237101 0.177349 1.6879e-20)
(0.47715 0.368061 0)
(-0.153207 -0.102554 3.26336e-19)
(-0.115925 -0.119582 1.15076e-19)
(-0.0178174 -0.0599403 1.73528e-19)
(0.123668 0.0501833 0)
(0.320247 0.186912 4.5154e-20)
(0.56422 0.343335 2.90735e-20)
(-0.169455 -0.0991992 0)
(-0.105319 -0.104902 -1.02496e-19)
(0.0138996 -0.0412585 -5.08625e-21)
(0.176321 0.0625619 1.26699e-20)
(0.389558 0.189849 -6.53463e-20)
(0.635332 0.324247 0)
(-0.183099 -0.0958933 -3.24416e-22)
(-0.0953202 -0.0920838 -7.60043e-22)
(0.0411792 -0.0267452 5.99658e-22)
(0.221249 0.070988 -8.26068e-21)
(0.447148 0.190552 -7.02077e-21)
(0.69214 0.310788 -5.68507e-21)
(-0.19452 -0.0934001 -1.63033e-19)
(-0.0866785 -0.0811238 9.61156e-20)
(0.0637929 -0.0155892 7.20066e-20)
(0.258549 0.076718 8.23889e-21)
(0.494739 0.19064 6.33407e-20)
(0.737315 0.302835 5.72073e-21)
(-0.203996 -0.0920605 1.62555e-19)
(-0.0799275 -0.0719637 -9.75075e-20)
(0.0815601 -0.00720637 -7.85456e-20)
(0.288482 0.0804216 8.03644e-21)
(0.533518 0.190745 -5.67295e-20)
(0.773045 0.298814 1.10082e-20)
(-0.211636 -0.0918892 -3.17809e-19)
(-0.0753949 -0.0644714 1.78873e-19)
(0.0943574 -0.00115068 -1.44952e-19)
(0.311244 0.0824604 0)
(0.564277 0.190946 0)
(0.800607 0.297266 -1.20977e-19)
(-0.217485 -0.0926678 3.17535e-19)
(-0.0732813 -0.0584378 -1.27496e-20)
(0.102055 0.00294127 1.72855e-19)
(0.327002 0.0830318 -1.60517e-20)
(0.5875 0.19102 2.82744e-20)
(0.82093 0.297036 7.30096e-20)
(-0.221596 -0.0940089 1.96323e-20)
(-0.0737138 -0.0535838 -1.88952e-19)
(0.104528 0.00535113 -2.88947e-19)
(0.335806 0.0821526 3.25725e-20)
(0.603426 0.190634 2.34151e-19)
(0.834774 0.297285 -7.47843e-20)
(-0.224082 -0.0954362 0)
(-0.076767 -0.0496011 0)
(0.101707 0.00634952 2.91661e-19)
(0.337547 0.0797241 0)
(0.612109 0.189411 -2.36385e-19)
(0.842877 0.297343 0)
(-0.224922 -0.0963744 1.85659e-20)
(-0.0824744 -0.0461837 -3.6592e-19)
(0.0934836 0.00620488 -2.91135e-19)
(0.331988 0.0756284 -2.62316e-19)
(0.613495 0.1869 2.40209e-19)
(0.84566 0.296738 -2.11488e-19)
(-0.224402 -0.0962917 0)
(-0.0908511 -0.04307 3.60722e-19)
(0.0797206 0.00520415 3.32053e-19)
(0.318781 0.0697752 2.32507e-19)
(0.607465 0.182625 -2.42021e-19)
(0.84313 0.294938 -5.53971e-20)
(-0.22242 -0.0946313 -1.92128e-20)
(-0.101697 -0.0399894 1.13635e-20)
(0.0602938 0.00366021 -3.32627e-19)
(0.297448 0.062057 3.28173e-20)
(0.593303 0.176085 0)
(0.835533 0.29153 -2.62081e-21)
(-0.219412 -0.0908668 0)
(-0.114759 -0.0367105 0)
(0.0351345 0.00190684 2.61941e-19)
(0.267462 0.0523599 -2.3299e-19)
(0.569988 0.166914 6.2416e-20)
(0.822738 0.285926 1.09574e-19)
(-0.215647 -0.0844091 -6.16632e-19)
(-0.129645 -0.0330192 0)
(0.00432689 0.00029366 3.81122e-20)
(0.228313 0.0406202 2.71097e-19)
(0.535935 0.154822 1.56194e-19)
(0.804287 0.277303 -1.13149e-19)
(-0.211954 -0.074947 1.24009e-18)
(-0.145817 -0.0288095 3.91312e-19)
(-0.0317538 -0.00087539 0)
(0.179651 0.0269333 0)
(0.488928 0.139709 -1.25338e-21)
(0.779316 0.264398 5.0958e-19)
(-0.210558 -0.0635934 -1.98453e-22)
(-0.162516 -0.0242237 4.23932e-22)
(-0.0721651 -0.00142989 3.08308e-19)
(0.121405 0.0116326 0)
(0.426086 0.121914 -2.55223e-19)
(0.746414 0.245448 -2.86771e-19)
(-0.204803 -0.0391529 -5.75328e-19)
(-0.177584 -0.0197336 -8.28657e-19)
(-0.114785 -0.00126654 -3.15941e-19)
(0.0539883 -0.00457955 0)
(0.343607 0.102144 -6.49931e-20)
(0.70305 0.217669 -2.75218e-21)
(-0.191894 -0.0254527 7.96994e-21)
(-0.1876 -0.0161513 3.97706e-19)
(-0.15628 -0.000168359 2.03539e-20)
(-0.0199545 -0.0199657 0)
(0.235883 0.0818581 0)
(0.643394 0.17548 -1.60365e-19)
(-0.177535 -0.0193693 -5.11876e-19)
(-0.194182 -0.0115734 -4.58146e-19)
(-0.193163 0.00299102 3.26892e-19)
(-0.0930921 -0.0321521 0)
(0.0910802 0.06311 0)
(0.554886 0.102434 2.222e-19)
(-0.156831 -0.0108705 7.90931e-21)
(-0.194168 -0.00562993 4.56403e-19)
(-0.225607 0.00843046 -3.04315e-19)
(-0.151386 -0.0397907 -3.41481e-20)
(-0.119946 0.0515359 3.17717e-19)
(0.447789 -0.00525647 -1.674e-19)
(-0.0952913 -0.00658472 -1.54141e-20)
(-0.157901 -0.00569032 -2.98476e-20)
(-0.235257 0.0166086 -3.34335e-19)
(-0.179297 -0.0263215 0)
(-0.357339 0.0906726 -2.63456e-19)
(0.356007 0.00234518 2.11074e-19)
(0.910011 0.485205 -5.18777e-20)
(1.14343 0.339999 4.17948e-20)
(1.25861 0.276998 0)
(1.31554 0.244717 -2.41151e-20)
(1.33748 0.221544 0)
(1.34001 0.202073 -1.18838e-20)
(1.33287 0.185002 -5.69221e-21)
(1.32156 0.169802 -7.5184e-22)
(1.30902 0.156194 -1.14656e-20)
(1.29662 0.14394 0)
(1.28487 0.132843 -1.38554e-20)
(1.27383 0.122704 -3.1311e-20)
(1.26335 0.113339 -6.37464e-20)
(1.25319 0.104602 1.57706e-20)
(1.24309 0.0963906 0)
(1.23277 0.088656 3.03755e-20)
(1.2219 0.0813998 -1.33249e-20)
(1.21011 0.074684 -5.6895e-20)
(1.19699 0.0686256 6.84315e-20)
(1.18195 0.0632817 0)
(1.16428 0.0586584 5.15402e-20)
(1.14357 0.0560882 -1.1539e-19)
(1.12031 0.0605916 6.47128e-20)
(1.09285 0.0733291 2.77683e-20)
(0.910477 0.445934 3.45568e-20)
(1.14875 0.365385 -5.33922e-20)
(1.26209 0.308907 5.88841e-21)
(1.31384 0.273677 -1.78714e-21)
(1.33062 0.245217 -8.47362e-21)
(1.32938 0.220775 -1.31617e-20)
(1.32 0.199674 1.53531e-20)
(1.30762 0.181389 -3.72452e-21)
(1.29472 0.165452 3.43926e-20)
(1.28234 0.151462 0)
(1.27073 0.139057 -1.85924e-20)
(1.25979 0.127922 3.41095e-20)
(1.24932 0.117793 1.66568e-20)
(1.23905 0.108468 1.85802e-20)
(1.22872 0.0998024 0)
(1.21806 0.0917067 0)
(1.20679 0.0841524 -1.52384e-20)
(1.19457 0.0771751 1.63801e-20)
(1.181 0.0708575 -1.42579e-20)
(1.16559 0.0652258 -1.52165e-20)
(1.14768 0.0602466 0)
(1.12689 0.0572106 5.66694e-20)
(1.10363 0.0611403 -6.97281e-20)
(1.07663 0.0728113 -4.48326e-20)
(0.914667 0.430094 -3.22199e-21)
(1.14934 0.378763 2.59583e-20)
(1.25787 0.331932 -5.86543e-21)
(1.30361 0.29486 1.97742e-21)
(1.31657 0.262841 8.25361e-21)
(1.31344 0.235111 1.27901e-20)
(1.3034 0.211294 1.16393e-20)
(1.29114 0.190889 9.34559e-21)
(1.27877 0.173341 -1.99114e-20)
(1.267 0.158124 -2.00852e-20)
(1.25594 0.144773 0)
(1.2454 0.132896 -2.18128e-20)
(1.23515 0.122177 -4.15043e-20)
(1.22493 0.112376 7.58062e-22)
(1.21452 0.103318 0)
(1.20368 0.0948904 -3.68403e-20)
(1.19217 0.0870365 5.34573e-20)
(1.1797 0.0797666 -5.05618e-20)
(1.16591 0.0731325 3.27135e-20)
(1.15036 0.0671237 -1.67204e-20)
(1.13249 0.0616798 -5.71062e-22)
(1.11192 0.0580283 4.43571e-20)
(1.08892 0.0611765 -1.65369e-20)