/*--------------------------------*- C++ -*----------------------------------*\
  =========                 |
  \\      /  F ield         | OpenFOAM: The Open Source CFD Toolbox
   \\    /   O peration     | Website:  https://openfoam.org
    \\  /    A nd           | Version:  11
     \\/     M anipulation  |
\*---------------------------------------------------------------------------*/
FoamFile
{
    format      ascii;
    class       surfaceVectorField;
    location    "1.44";
    object      Uf;
}
// * * * * * * * * * * * * * * * * * * * * * * * * * * * * * * * * * * * * * //

dimensions      [0 1 -1 0 0 0 0];

internalField   nonuniform List<vector> 
5640
(
(-0.0256924 0.0640135 4.93248e-21)
(-0.0159308 0.0558298 1.59687e-19)
(-0.0505057 0.0911018 2.18399e-19)
(-0.0490362 0.0856343 1.72661e-20)
(-0.0543579 0.10522 1.74885e-19)
(-0.063293 0.102909 2.05812e-19)
(-0.0429789 0.104351 1.9384e-20)
(-0.039698 0.104967 -2.81834e-20)
(0.022037 0.0791159 4.53981e-20)
(-0.058443 0.0977376 -6.99187e-22)
(0.102297 0.0443576 3.03792e-21)
(0.0587265 -0.0710969 -1.92905e-19)
(-0.0370185 0.0769448 1.8037e-19)
(-0.0247796 0.0674725 1.74126e-19)
(-0.0597846 0.0972404 -2.51967e-21)
(-0.054908 0.0935827 -1.5167e-20)
(-0.0585639 0.104063 6.28652e-21)
(-0.0670016 0.103745 1.00671e-19)
(-0.040139 0.089122 -6.86524e-20)
(-0.0456285 0.0988276 8.39885e-21)
(0.000734119 0.0585952 -1.61153e-20)
(-0.0480551 0.0712543 -7.77009e-20)
(0.0477891 0.0262533 4.87341e-20)
(0.041893 -0.0577912 1.27084e-19)
(-0.0400021 0.084123 -7.73432e-21)
(-0.0292391 0.0770823 -1.3382e-19)
(-0.0613065 0.0999841 8.2986e-20)
(-0.0562767 0.0991642 -6.62107e-20)
(-0.06085 0.0999705 1.05901e-19)
(-0.0685798 0.103461 1.16726e-20)
(-0.0432882 0.0780725 4.6131e-21)
(-0.0523163 0.0923537 8.39885e-21)
(-0.0178302 0.0417985 -7.23763e-21)
(-0.0486763 0.0559917 -2.79568e-20)
(0.00910094 0.0115839 -1.74335e-20)
(0.0129684 -0.0487347 1.46322e-20)
(-0.0432128 0.0908799 -1.95876e-19)
(-0.0338006 0.0860502 -1.32809e-19)
(-0.0631787 0.102526 -1.40887e-19)
(-0.0585423 0.104151 -6.63817e-21)
(-0.0645091 0.0967978 -8.57946e-20)
(-0.0710034 0.103536 -8.0558e-20)
(-0.0510541 0.0701655 -2.0303e-20)
(-0.0603318 0.0873073 -5.92837e-21)
(-0.0353952 0.0298679 -4.1614e-20)
(-0.0558154 0.0472298 8.97845e-21)
(-0.021875 0.00270019 -1.74335e-20)
(-0.0165871 -0.0440472 -4.65343e-20)
(-0.0470963 0.0980857 4.93114e-20)
(-0.0391012 0.0944563 1.39951e-22)
(-0.0661017 0.105173 5.68866e-20)
(-0.0617724 0.108648 5.27218e-20)
(-0.0696204 0.094877 -3.40202e-21)
(-0.0745585 0.104273 2.12733e-21)
(-0.0610777 0.0651384 2.22268e-20)
(-0.0691659 0.0840846 -2.01503e-21)
(-0.0522383 0.0224931 3.0382e-20)
(-0.0663481 0.042543 3.29906e-20)
(-0.0481495 -0.00284221 2.82615e-21)
(-0.0403373 -0.0405769 2.7716e-20)
(-0.0519987 0.104212 5.1676e-22)
(-0.0451298 0.102254 8.30914e-20)
(-0.0699554 0.10791 1.11422e-22)
(-0.0658426 0.112656 -5.11536e-20)
(-0.0757934 0.0942734 3.46529e-21)
(-0.0789625 0.10574 -3.72209e-20)
(-0.0720791 0.0625858 7.24989e-21)
(-0.0783864 0.0827148 9.64581e-23)
(-0.0685427 0.0189012 6.15789e-21)
(-0.0784267 0.0407902 -2.64971e-20)
(-0.0704619 -0.00491703 1.29809e-23)
(-0.0636002 -0.036728 -7.73978e-22)
(-0.0575915 0.109531 3.91659e-20)
(-0.050677 0.109454 -5.72753e-21)
(-0.07447 0.110702 -8.90761e-20)
(-0.0703142 0.116174 5.19784e-22)
(-0.0825112 0.0949639 -4.18477e-20)
(-0.0837848 0.107925 2.58797e-21)
(-0.0832715 0.0621576 -3.28981e-20)
(-0.0875816 0.0831233 -7.71805e-21)
(-0.0839983 0.0182293 -3.32529e-20)
(-0.0907703 0.041347 -3.54811e-21)
(-0.089282 -0.00442072 -8.5303e-21)
(-0.0838363 -0.0328127 2.85468e-24)
(-0.0624864 0.115098 -4.52562e-20)
(-0.0542907 0.116137 9.16217e-20)
(-0.0790729 0.113688 9.21749e-20)
(-0.0744084 0.119466 -4.64431e-20)
(-0.089313 0.0968847 3.69858e-20)
(-0.0886139 0.110855 1.14946e-19)
(-0.0940632 0.0635952 2.1491e-20)
(-0.0963508 0.0852131 -3.90401e-21)
(-0.0980837 0.0197578 2.12686e-20)
(-0.102503 0.0438199 2.62402e-20)
(-0.104882 -0.00212986 5.35263e-20)
(-0.10051 -0.0288338 2.80649e-20)
(-0.0657174 0.120633 9.84002e-20)
(-0.0569843 0.122032 -1.15039e-21)
(-0.0832191 0.117057 -3.05319e-20)
(-0.077738 0.122944 -9.3285e-20)
(-0.0957674 0.100011 7.79788e-20)
(-0.0930813 0.114614 -1.33426e-20)
(-0.103983 0.0667238 0)
(-0.104326 0.0889124 7.94265e-21)
(-0.110387 0.0229634 5.78437e-20)
(-0.113026 0.0479881 -1.3547e-20)
(-0.117423 0.00152978 2.36623e-20)
(-0.11368 -0.0247905 3.74766e-20)
(-0.068633 0.124803 -1.86181e-19)
(-0.0601906 0.126787 -1.92044e-19)
(-0.0867014 0.120937 -7.9461e-20)
(-0.0802404 0.126626 1.0961e-19)
(-0.101507 0.104349 -8.40108e-20)
(-0.0968731 0.119263 6.44006e-20)
(-0.112655 0.0714527 -5.00188e-21)
(-0.111188 0.0941872 -8.06035e-21)
(-0.120594 0.0276036 -4.82614e-20)
(-0.121922 0.0537724 -1.27372e-19)
(-0.126935 0.00639392 1.67869e-21)
(-0.123313 -0.0205972 -2.87123e-20)
(-0.0713283 0.128588 8.65661e-20)
(-0.063458 0.130303 -1.1363e-20)
(-0.0893623 0.125365 2.55477e-19)
(-0.0818268 0.130474 1.04387e-19)
(-0.106222 0.10992 1.42878e-19)
(-0.0997061 0.124841 1.18795e-23)
(-0.119776 0.0777687 -1.27333e-19)
(-0.116665 0.101042 -1.6003e-20)
(-0.128452 0.0336476 -8.01661e-20)
(-0.128896 0.061201 9.64728e-22)
(-0.133403 0.0124671 3.7175e-20)
(-0.129249 -0.0160805 3.04886e-20)
(-0.0735015 0.131937 0)
(-0.0662212 0.132578 -1.15347e-20)
(-0.0909893 0.130337 -1.4662e-19)
(-0.0823545 0.134463 2.08541e-19)
(-0.10965 0.116755 -1.5831e-19)
(-0.101333 0.13138 5.08033e-21)
(-0.125118 0.085725 1.11538e-19)
(-0.120536 0.109517 1.36791e-19)
(-0.13382 0.0411907 1.17507e-19)
(-0.133754 0.0704028 -7.23515e-21)
(-0.136853 0.0199329 1.09839e-19)
(-0.131533 -0.0108698 0)
(-0.0747374 0.134724 1.84531e-19)
(-0.0678116 0.133741 -1.15347e-20)
(-0.0913986 0.135847 3.689e-19)
(-0.0817144 0.138567 4.82534e-21)
(-0.111575 0.124895 2.95732e-19)
(-0.101552 0.138895 -2.13681e-20)
(-0.12851 0.0954323 2.20561e-20)
(-0.122631 0.119672 1.60629e-20)
(-0.136596 0.0504335 -1.77097e-20)
(-0.136363 0.0815847 1.39623e-21)
(-0.137337 0.0290725 1.41605e-19)
(-0.12999 -0.00481096 1.13876e-19)
(-0.0744953 0.137055 -1.9199e-19)
(-0.0675114 0.134037 1.13331e-20)
(-0.0904661 0.141887 -3.84336e-19)
(-0.0798763 0.142787 -2.10241e-19)
(-0.111835 0.134369 -3.02341e-19)
(-0.100218 0.147359 6.6505e-21)
(-0.129834 0.107038 -4.16245e-21)
(-0.122826 0.131561 -1.38532e-19)
(-0.136743 0.061676 1.57393e-19)
(-0.13664 0.095016 1.2338e-19)
(-0.134978 0.0402502 3.61345e-20)
(-0.124526 0.00245824 -1.05819e-19)
(-0.0728168 0.139038 5.57866e-21)
(-0.0641738 0.134249 1.13331e-20)
(-0.0881468 0.148431 1.71516e-19)
(-0.0768792 0.147031 -6.49689e-21)
(-0.110324 0.145173 1.75423e-19)
(-0.0972525 0.156673 3.97355e-20)
(-0.129015 0.1207 -1.83324e-20)
(-0.121044 0.145194 1.1454e-19)
(-0.134291 0.0752904 4.26409e-21)
(-0.134539 0.111011 -3.41773e-20)
(-0.130021 0.0539063 -5.6735e-20)
(-0.115097 0.0112684 3.11115e-20)
(-0.0686901 0.141463 0)
(-0.0571733 0.1349 3.51857e-19)
(-0.0844314 0.155466 -1.40173e-19)
(-0.0730811 0.15121 0)
(-0.107001 0.157224 -2.3246e-20)
(-0.0926786 0.166634 -1.68529e-19)
(-0.126025 0.136553 1.02865e-19)
(-0.11725 0.160483 -2.15172e-20)
(-0.129348 0.0917127 -9.63794e-20)
(-0.130028 0.129905 -1.24907e-19)
(-0.122866 0.0705275 8.85262e-21)
(-0.101647 0.0219286 -9.35469e-20)
(-0.0619998 0.143271 3.72156e-19)
(-0.0504239 0.132857 -2.62619e-19)
(-0.0796652 0.162622 -2.11841e-20)
(-0.0690791 0.154881 -2.2137e-19)
(-0.101859 0.170312 -1.71878e-19)
(-0.0865573 0.176806 -2.21256e-20)
(-0.120876 0.154683 -2.4632e-19)
(-0.111426 0.177192 -1.53893e-19)
(-0.122166 0.111358 -2.19503e-20)
(-0.123113 0.152046 -9.43926e-20)
(-0.114134 0.090501 -2.47024e-19)
(-0.0838962 0.0345435 2.45035e-19)
(-0.0573374 0.141757 -8.60318e-19)
(-0.0467446 0.125766 -6.18835e-19)
(-0.0741159 0.16909 -2.3079e-19)
(-0.0646861 0.15687 -2.23335e-19)
(-0.094907 0.184001 0)
(-0.0788655 0.186563 -1.87203e-19)
(-0.11362 0.175055 -3.78617e-21)
(-0.103499 0.194909 0)
(-0.113338 0.134468 -3.13484e-19)
(-0.113921 0.177819 1.4958e-19)
(-0.10458 0.114132 -1.33166e-19)
(-0.0616608 0.049059 -5.46914e-19)
(-0.0540058 0.137417 -2.64545e-21)
(-0.0438202 0.115596 2.91617e-19)
(-0.0675859 0.174087 -1.80636e-19)
(-0.0594168 0.156515 4.67331e-19)
(-0.0860343 0.197704 -1.93528e-19)
(-0.0694598 0.195229 6.27492e-21)
(-0.104081 0.197486 1.49233e-19)
(-0.0932969 0.212975 0)
(-0.102191 0.162547 3.36227e-19)
(-0.101988 0.207131 1.95525e-19)
(-0.09518 0.141888 1.83573e-19)
(-0.03373 0.0662172 1.87357e-19)
(-0.0495487 0.130736 7.51899e-19)
(-0.0400806 0.104022 2.88023e-19)
(-0.0596579 0.177036 6.74933e-19)
(-0.0529847 0.153565 2.39361e-19)
(-0.0750177 0.21067 2.0045e-19)
(-0.0581645 0.202127 1.81439e-19)
(-0.0919208 0.221488 4.08094e-20)
(-0.0806293 0.23033 0)
(-0.0895157 0.19527 5.67259e-20)
(-0.0866303 0.240509 4.19866e-20)
(-0.0862152 0.173835 1.3291e-19)
(0.00195358 0.0864257 3.08441e-19)
(-0.0437038 0.121961 -2.22342e-19)
(-0.0355022 0.0914045 3.09476e-19)
(-0.0501736 0.177562 -2.51684e-19)
(-0.0452136 0.147823 4.06576e-20)
(-0.0616993 0.221943 -1.28819e-20)
(-0.0448804 0.206544 -2.30081e-19)
(-0.076487 0.246553 0)
(-0.0652085 0.245201 0)
(-0.0738308 0.233712 1.29559e-19)
(-0.0661817 0.278517 0)
(-0.075876 0.209846 -3.88418e-20)
(0.0509219 0.113479 6.70596e-20)
(-0.0379845 0.112066 5.8887e-19)
(-0.0305171 0.0775529 2.92484e-19)
(-0.0394872 0.175491 7.44671e-20)
(-0.0361222 0.13893 -9.8276e-21)
(-0.0463944 0.230363 -2.24972e-19)
(-0.0298478 0.207501 -8.84872e-21)
(-0.0570208 0.271731 0)
(-0.0468829 0.254315 2.49629e-20)
(-0.0519817 0.27892 -1.71875e-19)
(-0.0379047 0.321221 -2.43788e-19)
(-0.0597474 0.248365 6.53521e-20)
(0.12174 0.153875 -2.05361e-19)
(-0.0321332 0.099645 -2.75224e-19)
(-0.0280156 0.0573519 -4.19184e-19)
(-0.0280828 0.169913 -9.31128e-20)
(-0.028994 0.119703 -5.77919e-19)
(-0.0304197 0.233486 2.32717e-19)
(-0.0164807 0.198318 4.52882e-19)
(-0.0335978 0.294724 -2.1129e-19)
(-0.0283599 0.246489 5.38787e-20)
(-0.0206392 0.331042 -7.93065e-20)
(0.000318067 0.364306 -6.8868e-20)
(-0.0388728 0.276377 -1.48531e-19)
(0.218128 0.210112 2.81573e-19)
(-0.0269954 0.0706082 -7.10841e-19)
(-0.0179316 0.145562 -7.57876e-20)
(-0.0130614 0.212913 2.85031e-19)
(-0.00207369 0.297912 1.88585e-19)
(0.0177829 0.3744 -2.1668e-19)
(0.316934 0.270958 -4.76695e-19)
(-0.139294 -0.159524 -1.31825e-19)
(-0.0650268 -0.179712 -1.40323e-19)
(-0.214476 -0.192052 -1.32954e-19)
(-0.110851 -0.0849514 4.14317e-20)
(-0.129381 -0.122588 -5.68992e-20)
(-0.185141 -0.099386 -9.68015e-20)
(-0.0255413 -0.0143988 4.23567e-20)
(-0.0707008 -0.0588729 2.48638e-20)
(-0.0744363 -0.023651 1.73501e-21)
(0.0797783 0.0437927 6.92154e-20)
(0.0106281 0.00109957 1.2802e-19)
(0.044048 0.041792 -1.23618e-21)
(0.191623 0.0899639 7.96661e-20)
(0.108202 0.0502716 1.47236e-20)
(0.170395 0.0933623 -7.55605e-20)
(0.302203 0.125557 1.00069e-19)
(0.209297 0.0898379 9.26231e-20)
(0.294274 0.132785 1.12763e-19)
(0.407114 0.152116 7.47463e-22)
(0.308433 0.120823 -1.44172e-20)
(0.41113 0.161791 -3.33968e-21)
(0.503885 0.171044 -3.50344e-21)
(0.402214 0.14438 -1.93021e-20)
(0.518258 0.182037 1.96762e-21)
(0.591399 0.183584 4.07786e-21)
(0.488687 0.161539 -1.27487e-20)
(0.614409 0.195044 4.24911e-20)
(0.669352 0.190827 -2.05948e-20)
(0.566989 0.173258 -1.14607e-20)
(0.699285 0.202129 -2.58604e-20)
(0.737933 0.193684 -2.21466e-20)
(0.636909 0.180374 -1.22392e-21)
(0.773152 0.204419 -1.96195e-20)
(0.797699 0.192937 -1.75489e-21)
(0.69862 0.183583 -2.72453e-20)
(0.836706 0.202866 -6.24325e-21)
(0.849422 0.189288 7.65012e-21)
(0.752615 0.183528 6.56257e-21)
(0.890902 0.198294 1.70624e-20)
(0.893978 0.183345 1.1709e-21)
(0.799581 0.180784 -8.44783e-21)
(0.936817 0.19141 -5.65669e-22)
(0.932274 0.175623 4.52703e-21)
(0.840294 0.175842 5.62827e-21)
(0.975547 0.182802 -6.86524e-21)
(0.965205 0.16657 -6.60654e-21)
(0.875545 0.16914 -1.32548e-21)
(1.00816 0.172967 1.62602e-20)
(0.993628 0.156592 -1.97188e-21)
(0.90611 0.161077 -3.32736e-21)
(1.03565 0.162335 -7.98178e-21)
(1.01833 0.146063 9.85027e-24)
(0.932777 0.152025 2.59473e-21)
(1.05895 0.151267 1.00219e-20)
(1.04002 0.135345 -4.79703e-21)
(0.956188 0.142359 -2.47384e-21)
(1.0788 0.140131 -1.00148e-21)
(1.0593 0.124765 -1.03815e-21)
(0.977219 0.132396 -5.70142e-22)
(1.09612 0.129153 -5.32932e-21)
(1.07676 0.114711 2.92489e-21)
(0.995777 0.122601 8.78535e-22)
(1.11083 0.118887 3.21938e-21)
(1.09258 0.105084 -5.32884e-23)
(1.01438 0.112934 -6.46341e-22)
(1.12529 0.108868 -4.83012e-22)
(1.10752 0.0970899 5.73839e-22)
(1.02794 0.104399 7.62009e-22)
(1.13429 0.100769 -7.13313e-22)
(1.05422 0.093554 9.94361e-22)
(1.15808 0.0903353 1.099e-21)
(-0.0776192 -0.148459 -3.54469e-20)
(-0.029347 -0.150865 1.018e-19)
(-0.0871509 -0.100229 -7.78944e-20)
(-0.098855 -0.121982 -1.40921e-19)
(-0.0377277 -0.0446245 1.1025e-19)
(-0.0696232 -0.0784044 1.28541e-21)
(0.0374923 0.00628167 7.54941e-20)
(-0.0158122 -0.0293104 2.04517e-20)
(0.124202 0.0492464 2.60673e-20)
(0.0567465 0.0138728 -1.68406e-20)
(0.21412 0.0844168 -2.09861e-20)
(0.13616 0.0508215 -1.38195e-20)
(0.302372 0.112538 -3.4875e-20)
(0.216872 0.0816324 -4.35402e-20)
(0.386056 0.134424 -2.89802e-20)
(0.295308 0.106812 -1.03938e-20)
(0.463494 0.150841 -2.83016e-20)
(0.369264 0.126917 -1.46904e-20)
(0.533908 0.162509 7.8034e-21)
(0.437432 0.142486 1.14413e-20)
(0.597069 0.170064 -6.07612e-21)
(0.499245 0.154039 7.88565e-21)
(0.653116 0.174067 -1.98162e-20)
(0.554526 0.162012 -7.68866e-21)
(0.702453 0.175024 -9.46327e-21)
(0.603408 0.166817 4.66362e-21)
(0.745662 0.173382 -4.10787e-21)
(0.646251 0.168827 -5.32526e-21)
(0.783401 0.169567 0)
(0.683583 0.168403 0)
(0.816359 0.163972 1.55667e-21)
(0.716033 0.165873 3.82129e-21)
(0.845236 0.156959 6.26335e-22)
(0.744243 0.161534 -3.69499e-21)
(0.870716 0.148874 -3.9237e-22)
(0.768907 0.155686 1.46842e-21)
(0.89346 0.140082 7.87506e-22)
(0.790672 0.148636 -9.01294e-22)
(0.914062 0.13091 2.07449e-22)
(0.810307 0.140724 1.30438e-22)
(0.933077 0.1218 9.43627e-22)
(0.828143 0.132293 -3.01332e-22)
(0.950914 0.112863 -2.45365e-21)
(0.845599 0.123724 1.02114e-21)
(0.967661 0.104087 -1.58956e-21)
(0.860928 0.115276 -1.05468e-21)
(0.880745 0.105295 -3.0444e-22)
(-0.0633912 -0.127303 -4.85062e-21)
(-0.0328709 -0.124531 -8.50289e-21)
(-0.0791584 -0.103239 -6.20804e-20)
(-0.0886815 -0.115309 1.53917e-20)
(-0.0507167 -0.0640815 -9.06625e-20)
(-0.0744492 -0.0889304 -5.01556e-20)
(0.00202072 -0.022907 -7.27685e-20)
(-0.0386425 -0.0518473 -4.03241e-20)
(0.0672339 0.0144708 -5.82536e-20)
(0.0143726 -0.0161933 -1.72268e-20)
(0.137673 0.0471665 -3.66758e-20)
(0.0750503 0.0165253 -2.5845e-20)
(0.208777 0.0751225 -1.94231e-20)
(0.138492 0.0456356 1.77915e-20)
(0.277643 0.098578 4.95863e-21)
(0.201361 0.0710954 -9.62308e-21)
(0.342454 0.117859 2.53416e-20)
(0.261525 0.0930224 2.03325e-21)
(0.402124 0.133327 1.15606e-20)
(0.317605 0.111616 6.41781e-21)
(0.456126 0.145321 6.60093e-21)
(0.368806 0.127072 1.16434e-20)
(0.504302 0.154139 1.66766e-20)
(0.414767 0.139558 -5.9759e-21)
(0.546755 0.160082 9.67945e-21)
(0.4554 0.149264 1.08969e-20)
(0.583798 0.16343 -4.93188e-22)
(0.490857 0.156331 -5.02847e-21)
(0.615909 0.164425 3.79094e-21)
(0.521459 0.160884 0)
(0.64367 0.163275 -1.39121e-21)
(0.547703 0.163042 5.86382e-21)
(0.667722 0.160212 -2.82505e-21)
(0.570192 0.162927 -5.63293e-21)
(0.688742 0.155488 1.03882e-21)
(0.589602 0.16068 1.12574e-21)
(0.707422 0.149386 -1.43177e-21)
(0.606646 0.156458 -1.48019e-21)
(0.724451 0.142209 -8.25867e-23)
(0.622083 0.150498 -6.25204e-22)
(0.740437 0.134393 -7.87679e-23)
(0.636601 0.143123 5.22871e-22)
(0.75589 0.126267 2.57041e-22)
(0.65094 0.134927 1.81527e-22)
(0.770742 0.117576 2.1318e-22)
(0.664946 0.126501 1.65768e-21)
(0.677001 0.117588 1.38669e-22)
(-0.0677302 -0.111627 2.01959e-21)
(-0.0488585 -0.104228 7.43771e-21)
(-0.0816853 -0.102571 3.00159e-20)
(-0.0899609 -0.108513 5.01584e-20)
(-0.0648275 -0.0773174 0)
(-0.0831261 -0.0952662 -5.24811e-21)
(-0.027515 -0.0459816 1.48313e-20)
(-0.0582383 -0.0693901 0)
(0.0209574 -0.0149462 1.53127e-20)
(-0.0190261 -0.0413152 3.66576e-21)
(0.0748445 0.014183 2.8704e-20)
(0.0271412 -0.0134513 -3.18356e-21)
(0.130223 0.040823 2.87233e-20)
(0.0761797 0.0131426 2.91093e-20)
(0.184521 0.0647696 -1.35109e-20)
(0.125228 0.0379709 -1.18176e-20)
(0.236054 0.0860031 -1.79861e-20)
(0.172393 0.060805 -1.23956e-20)
(0.283736 0.104562 6.44612e-21)
(0.216469 0.0815574 2.46128e-21)
(0.326946 0.120477 -1.85152e-21)
(0.256694 0.100134 1.1405e-20)
(0.36539 0.13381 -1.44118e-20)
(0.292677 0.116464 -1.57438e-20)
(0.399044 0.144599 -4.97963e-21)
(0.324247 0.130482 -4.60972e-22)
(0.428079 0.152852 -4.57722e-21)
(0.351511 0.142088 -3.58774e-21)
(0.452844 0.158581 2.0263e-21)
(0.374731 0.15115 -1.37737e-21)
(0.473847 0.161803 3.02977e-21)
(0.394311 0.15751 3.35715e-21)
(0.491721 0.162536 -3.74244e-22)
(0.410813 0.161013 -4.37857e-22)
(0.507188 0.160815 -1.37852e-21)
(0.424901 0.161545 7.42607e-23)
(0.521014 0.156753 -6.79327e-22)
(0.43732 0.159065 -2.33045e-22)
(0.533975 0.150598 3.13674e-22)
(0.448871 0.153675 -6.83889e-22)
(0.546776 0.142851 8.29293e-22)
(0.460385 0.145721 3.53486e-22)
(0.559975 0.134225 -7.34983e-23)
(0.472472 0.136016 4.38597e-22)
(0.573638 0.125053 -7.43637e-23)
(0.484384 0.125908 6.87253e-23)
(0.492241 0.116723 -5.56827e-22)
(-0.0784622 -0.0998717 5.43549e-20)
(-0.0675149 -0.0883261 2.8359e-20)
(-0.0896435 -0.101766 1.55483e-20)
(-0.0969136 -0.103112 2.16682e-20)
(-0.078384 -0.0876751 -5.3457e-21)
(-0.0927031 -0.100331 5.79496e-21)
(-0.0507703 -0.0652194 -1.13122e-20)
(-0.073701 -0.0842224 1.14865e-21)
(-0.0138187 -0.0403423 -1.48774e-20)
(-0.0431648 -0.0632338 -1.05514e-20)
(0.027661 -0.0150383 -3.22788e-21)
(-0.00687197 -0.0400916 -3.18356e-21)
(0.0705178 0.00974067 -1.10824e-20)
(0.031748 -0.0162702 0)
(0.112553 0.0334994 -1.08964e-20)
(0.0703166 0.00749335 -1.20578e-20)
(0.152359 0.0559129 8.01925e-21)
(0.107217 0.0306362 1.91935e-21)
(0.189052 0.076743 7.34324e-21)
(0.14147 0.0528022 7.01736e-21)
(0.222101 0.0957875 -2.25267e-21)
(0.172506 0.0736767 -3.79033e-22)
(0.251242 0.112851 -1.93466e-21)
(0.200062 0.0929796 -2.42075e-21)
(0.27645 0.127719 9.43268e-22)
(0.224084 0.110391 1.62931e-22)
(0.297911 0.140151 -4.06324e-22)
(0.244715 0.125543 -4.54712e-22)
(0.315959 0.149868 -5.2056e-23)
(0.262254 0.13806 -1.53669e-21)
(0.331058 0.156567 -1.7126e-22)
(0.277104 0.147525 1.4993e-21)
(0.343799 0.159967 2.489e-24)
(0.289769 0.153511 -1.26937e-21)
(0.354875 0.159857 1.22187e-21)
(0.30083 0.155638 1.44327e-21)
(0.365043 0.15616 -2.346e-22)
(0.310949 0.153646 -3.1765e-22)
(0.375085 0.14906 -2.93289e-22)
(0.320817 0.147493 4.40698e-23)
(0.385725 0.139182 1.38884e-22)
(0.331136 0.137547 -7.49379e-22)
(0.397528 0.127691 1.43478e-21)
(0.342287 0.124861 5.82878e-22)
(0.410683 0.116136 7.77736e-21)
(0.353072 0.111409 1.70711e-22)
(0.360473 0.100269 -5.56827e-22)
(-0.0910862 -0.0910586 -3.91592e-21)
(-0.0854006 -0.0766392 -1.00604e-21)
(-0.0988689 -0.101832 1.16783e-20)
(-0.105482 -0.099636 1.67515e-20)
(-0.0894236 -0.0970785 1.23733e-20)
(-0.100628 -0.105569 8.24666e-21)
(-0.0669817 -0.0824877 2.13385e-21)
(-0.0836558 -0.097887 -1.03202e-21)
(-0.0370113 -0.0632633 9.67606e-22)
(-0.0574868 -0.083259 -5.81694e-21)
(-0.00343266 -0.0416163 0)
(-0.0267845 -0.064536 0)
(0.0310136 -0.0187935 -8.20431e-22)
(0.00557608 -0.0433797 -2.18991e-21)
(0.0645559 0.00438746 5.81085e-22)
(0.0376555 -0.0208443 -2.67259e-21)
(0.0959913 0.0273221 8.44948e-22)
(0.0682018 0.00231338 1.43967e-21)
(0.124649 0.0495633 -6.27774e-22)
(0.0964504 0.0254344 -2.55938e-21)
(0.150234 0.0707095 -4.91805e-22)
(0.122006 0.0479274 1.47792e-21)
(0.172696 0.0903506 -3.36884e-22)
(0.144754 0.0692828 -2.20906e-21)
(0.192161 0.108024 -1.26469e-21)
(0.16478 0.0889734 -7.50903e-23)
(0.20888 0.123223 -1.61086e-21)
(0.182282 0.106439 -1.44085e-21)
(0.223222 0.135421 2.87624e-23)
(0.197579 0.121097 -7.8034e-22)
(0.235634 0.144069 4.30367e-22)
(0.211056 0.132343 9.55731e-23)
(0.246623 0.148646 2.3964e-22)
(0.223134 0.139574 2.37915e-22)
(0.256738 0.148741 2.28435e-22)
(0.234253 0.142247 0)
(0.266539 0.144167 2.75343e-22)
(0.244859 0.139989 2.30033e-22)
(0.276536 0.135093 -1.12661e-23)
(0.255404 0.132742 8.74819e-24)
(0.287173 0.122263 1.7308e-22)
(0.266311 0.120919 2.04632e-22)
(0.298819 0.107388 1.7302e-22)
(0.277722 0.105649 -7.00392e-23)
(0.311515 0.0938792 2.82084e-23)
(0.288907 0.0894183 -8.75042e-23)
(0.298981 0.0774641 -3.17544e-23)
(-0.103174 -0.0848938 1.95217e-20)
(-0.100899 -0.0681061 4.65346e-20)
(-0.10662 -0.103281 1.36018e-20)
(-0.112885 -0.0981609 -3.37123e-21)
(-0.0960039 -0.106536 -4.98356e-21)
(-0.10483 -0.111698 -2.79405e-21)
(-0.0749733 -0.0988687 -8.87133e-21)
(-0.0866296 -0.111327 -2.17805e-21)
(-0.0479887 -0.0847554 -6.87293e-21)
(-0.0611182 -0.102317 -8.66149e-24)
(-0.018348 -0.0665262 -2.15943e-21)
(-0.0322053 -0.0875426 0)
(0.0117511 -0.0456736 -4.05003e-21)
(-0.0023217 -0.0689009 5.66489e-21)
(0.040939 -0.0232039 -1.86344e-21)
(0.0269755 -0.047732 -5.27819e-21)
(0.0683803 7.37322e-05 -1.91652e-21)
(0.054803 -0.0250102 0)
(0.093565 0.0233967 -4.95797e-22)
(0.0806508 -0.0015402 1.07865e-22)
(0.116329 0.0460757 -2.2269e-22)
(0.104298 0.0218274 3.9101e-21)
(0.136663 0.0674645 -2.01535e-21)
(0.12573 0.0444466 -4.03844e-21)
(0.154741 0.0869361 -2.68024e-22)
(0.145088 0.0655835 -2.65691e-22)
(0.170832 0.103854 -6.5052e-22)
(0.162597 0.0845269 -8.76968e-22)
(0.185272 0.117569 -7.8576e-22)
(0.178539 0.100556 2.10118e-22)
(0.198424 0.127431 -1.26508e-22)
(0.193237 0.112968 -1.25556e-22)
(0.210644 0.132829 0)
(0.207017 0.121096 0)
(0.222265 0.133262 0)
(0.220188 0.12436 0)
(0.233603 0.128468 -4.37266e-23)
(0.233018 0.122321 0)
(0.244967 0.118619 2.11044e-22)
(0.245759 0.114839 -2.96622e-22)
(0.256607 0.10456 5.67594e-23)
(0.258617 0.102296 5.0051e-22)
(0.268614 0.088355 -2.43543e-22)
(0.271754 0.0859468 -2.1432e-22)
(0.28067 0.0744329 -5.98478e-23)
(0.285605 0.0688401 -5.79556e-22)
(0.301062 0.0573517 -1.77445e-22)
(-0.112905 -0.0809923 2.38968e-20)
(-0.113263 -0.061806 3.51494e-21)
(-0.110842 -0.106317 -1.96997e-20)
(-0.117101 -0.0984728 -7.08178e-20)
(-0.0964846 -0.116579 0)
(-0.103597 -0.118959 0)
(-0.0735696 -0.114959 6.64593e-21)
(-0.081155 -0.125012 7.71499e-21)
(-0.0460334 -0.105334 6.86165e-21)
(-0.0529611 -0.120901 -3.1007e-22)
(-0.0167422 -0.0901485 7.72389e-21)
(-0.0224622 -0.109531 -1.04089e-20)
(0.0124631 -0.0711502 4.51659e-21)
(0.0082601 -0.0930389 -5.76844e-22)
(0.0404911 -0.0496358 -3.47769e-21)
(0.0379745 -0.0730299 7.30652e-21)
(0.0667832 -0.0266235 1.90901e-21)
(0.0660575 -0.0507359 3.71117e-21)
(0.0911335 -0.00297657 4.35743e-21)
(0.0922752 -0.0271722 -7.04175e-21)
(0.113471 0.0204965 2.0154e-22)
(0.116625 -0.0032558 6.18609e-21)
(0.133938 0.0430083 -2.32375e-21)
(0.139245 0.0201702 -2.40872e-21)
(0.152737 0.0637659 -8.69268e-22)
(0.160365 0.0423036 3.96942e-21)
(0.170103 0.0819724 -3.95057e-22)
(0.180254 0.0623749 2.0805e-22)
(0.186313 0.0968491 4.97259e-22)
(0.199191 0.0795806 4.9334e-22)
(0.201656 0.107669 0)
(0.217459 0.0931488 -8.10424e-22)
(0.216403 0.113787 0)
(0.235315 0.102379 7.36359e-22)
(0.230797 0.114684 0)
(0.252984 0.106665 3.54084e-22)
(0.245047 0.11005 -2.50917e-22)
(0.270643 0.105539 -3.40497e-22)
(0.259333 0.099971 -2.69242e-22)
(0.288421 0.0987813 -5.13392e-22)
(0.273798 0.085253 2.45019e-22)
(0.306367 0.0866387 4.61574e-22)
(0.288439 0.0680875 -5.48158e-22)
(0.324677 0.0703031 3.21469e-23)
(0.303043 0.0532236 -1.08237e-20)
(0.344511 0.0527646 -5.51442e-22)
(0.368073 0.0409139 5.78326e-22)
(-0.11915 -0.0787574 -9.04286e-20)
(-0.122026 -0.0570746 -2.39913e-20)
(-0.109961 -0.110722 -5.26012e-20)
(-0.116883 -0.100315 4.02098e-20)
(-0.0892934 -0.127398 7.57153e-21)
(-0.0953294 -0.127317 0)
(-0.0613947 -0.131085 6.54976e-22)
(-0.0656139 -0.139037 -2.5295e-20)
(-0.0301145 -0.125288 -1.74272e-20)
(-0.0315962 -0.139048 -2.06049e-20)
(0.00196493 -0.11262 -1.89896e-20)
(0.00352991 -0.130413 -1.47326e-21)
(0.033325 -0.0951011 2.08741e-21)
(0.0379953 -0.115559 -8.40978e-21)
(0.0631861 -0.0742909 1.45383e-20)
(0.0709075 -0.0963832 -1.83636e-22)
(0.0912549 -0.0514311 -5.10415e-21)
(0.101953 -0.0743624 3.71117e-21)
(0.117536 -0.0275727 -5.35106e-21)
(0.131158 -0.0506975 -3.2765e-21)
(0.142193 -0.003648 3.68549e-21)
(0.15874 -0.0264228 -2.79302e-21)
(0.165483 0.0194853 3.76331e-21)
(0.185015 -0.0024688 -2.71795e-21)
(0.187712 0.0410009 4.87108e-21)
(0.210335 0.0202983 2.30396e-21)
(0.209199 0.0600927 8.81782e-22)
(0.235063 0.0410758 8.74488e-22)
(0.230227 0.0759757 -8.03987e-22)
(0.259534 0.0590784 0)
(0.251054 0.087913 -3.1594e-22)
(0.284036 0.0735327 -8.10424e-22)
(0.271883 0.0952435 1.09321e-21)
(0.308781 0.0837655 7.04115e-22)
(0.292867 0.0974148 3.49906e-22)
(0.333929 0.0891898 -5.9265e-23)
(0.314119 0.0940518 -6.01819e-22)
(0.359575 0.0893293 -3.40497e-22)
(0.335715 0.0851117 -6.91684e-22)
(0.385738 0.0838901 -6.69345e-22)
(0.357697 0.0712092 2.51353e-22)
(0.412327 0.0729267 3.74512e-22)
(0.379928 0.0542759 3.23383e-23)
(0.439404 0.05748 -7.25244e-22)
(0.402003 0.0386243 0)
(0.467813 0.0402154 -2.75184e-22)
(0.501175 0.0277635 0)
(-0.121157 -0.0778726 1.04208e-19)
(-0.126787 -0.0533322 -1.50164e-21)
(-0.102752 -0.116415 9.37069e-20)
(-0.111074 -0.103384 3.82997e-20)
(-0.0727797 -0.138927 -3.23961e-20)
(-0.0783463 -0.136636 1.98753e-20)
(-0.0367791 -0.147118 -4.68715e-20)
(-0.0381613 -0.15316 -5.10563e-20)
(0.00124586 -0.14436 -5.28974e-21)
(0.00473168 -0.156337 1.15682e-20)
(0.0389332 -0.133545 9.02455e-21)
(0.0472614 -0.149569 8.90065e-21)
(0.0750832 -0.117016 -1.06239e-20)
(0.0879772 -0.135653 0)
(0.109277 -0.096606 -1.08905e-20)
(0.12638 -0.11683 -1.92436e-20)
(0.141528 -0.0737617 5.42686e-21)
(0.162515 -0.0948122 -4.35747e-22)
(0.172087 -0.049673 -7.55337e-22)
(0.196711 -0.0709614 3.96351e-21)
(0.201329 -0.0253681 -8.87057e-21)
(0.229436 -0.0464105 -3.27477e-21)
(0.229665 -0.00176855 -4.0036e-21)
(0.261185 -0.0221453 -2.06493e-21)
(0.25751 0.0202751 -1.543e-21)
(0.292452 0.000947064 -1.51484e-21)
(0.285257 0.0399663 0)
(0.323689 0.0220561 7.82776e-22)
(0.313234 0.0565492 0)
(0.355272 0.0404403 -1.06783e-21)
(0.341689 0.0693205 4.23246e-24)
(0.387486 0.0553961 0)
(0.370797 0.0776625 -7.41749e-22)
(0.420519 0.0663028 1.57133e-21)
(0.400653 0.0810527 -4.16221e-22)
(0.45448 0.072642 -1.69389e-21)
(0.431271 0.0791096 -1.365e-22)
(0.489368 0.0739981 0)
(0.462571 0.0716982 1.71524e-23)
(0.52506 0.0701066 1.10716e-22)
(0.494365 0.0591397 -1.4863e-21)
(0.561241 0.060972 1.56454e-22)
(0.526438 0.0428936 -4.58102e-22)
(0.5979 0.0471916 8.34564e-22)
(0.55819 0.0267578 -2.76766e-22)
(0.634853 0.0308154 -1.03941e-21)
(0.678452 0.0186618 6.47404e-22)
(-0.118036 -0.077968 -6.94005e-20)
(-0.127307 -0.0501493 -1.67121e-20)
(-0.0876071 -0.12306 -3.52349e-20)
(-0.0983305 -0.107367 8.57345e-20)
(-0.0450718 -0.150827 1.75768e-21)
(-0.050826 -0.146513 -3.68898e-21)
(0.00221571 -0.162527 6.58676e-21)
(0.00326269 -0.166768 3.02335e-20)
(0.0498488 -0.161759 2.55949e-20)
(0.0579966 -0.171869 -1.03711e-20)
(0.0955946 -0.151894 0)
(0.11038 -0.165777 2.00864e-20)
(0.138708 -0.135655 -8.37252e-21)
(0.159401 -0.151873 0)
(0.179149 -0.115161 -9.01316e-21)
(0.205043 -0.132707 -1.45082e-20)
(0.217295 -0.0920601 -1.87257e-21)
(0.2478 -0.110239 1.41122e-20)
(0.253697 -0.067677 1.05185e-21)
(0.288351 -0.0859682 -1.30723e-20)
(0.288962 -0.04311 3.0417e-21)
(0.327416 -0.0611059 3.99627e-21)
(0.323672 -0.0193153 4.18731e-22)
(0.365668 -0.0366576 -3.16336e-22)
(0.358357 0.00285964 5.15287e-22)
(0.403728 -0.0134983 4.23403e-21)
(0.393458 0.0226652 -5.44828e-22)
(0.442092 0.00759376 1.42482e-21)
(0.429316 0.0394229 -1.07631e-21)
(0.48114 0.0259441 -9.19391e-21)
(0.466157 0.0525083 1.78787e-21)
(0.521142 0.040956 5.52221e-21)
(0.504101 0.0613957 1.09221e-22)
(0.562242 0.0520992 -8.88647e-22)
(0.543149 0.0656812 -1.28944e-21)
(0.604456 0.0589568 9.89729e-22)
(0.583171 0.0650748 1.71875e-22)
(0.647635 0.0612459 0)
(0.623896 0.0594745 1.74139e-22)
(0.691513 0.0588305 1.7303e-22)
(0.664929 0.0490642 1.01174e-21)
(0.735527 0.0517464 2.89151e-21)
(0.705731 0.0349069 5.77812e-22)
(0.779875 0.0405076 -6.67688e-22)
(0.745316 0.0197866 -4.67359e-22)
(0.822233 0.0262903 -2.7438e-21)
(0.875374 0.0166096 3.0389e-21)
(-0.109143 -0.0785658 1.35967e-19)
(-0.123246 -0.0471379 -1.70493e-20)
(-0.0629962 -0.130293 1.18161e-19)
(-0.0773241 -0.111974 4.05432e-20)
(-0.00413418 -0.162463 2.34773e-20)
(-0.0107371 -0.156346 -2.35643e-20)
(0.0576909 -0.176312 1.35516e-20)
(0.0608793 -0.178843 4.83794e-20)
(0.117464 -0.176133 -1.55752e-20)
(0.130181 -0.184158 -5.68638e-20)
(0.173335 -0.165956 2.0366e-20)
(0.194469 -0.177254 7.25044e-20)
(0.225054 -0.149037 -6.26423e-21)
(0.253375 -0.162114 0)
(0.273133 -0.127841 7.58858e-21)
(0.307482 -0.141688 8.69952e-21)
(0.318388 -0.104175 3.28498e-21)
(0.357782 -0.118178 5.25564e-21)
(0.361668 -0.0794117 -1.02564e-20)
(0.40528 -0.0931815 -4.80034e-21)
(0.403775 -0.0546598 6.29505e-22)
(0.450962 -0.0679245 1.76995e-21)
(0.445421 -0.030841 4.04155e-21)
(0.495671 -0.0433958 -4.20645e-22)
(0.48719 -0.0087589 4.80552e-21)
(0.540117 -0.020405 5.87974e-21)
(0.529531 0.0108841 -7.78559e-21)
(0.584827 0.000349143 -2.97342e-21)
(0.572767 0.0274929 -2.2942e-21)
(0.630199 0.0182825 -5.62993e-21)
(0.617079 0.0405714 2.89429e-21)
(0.676487 0.0329186 6.39533e-21)
(0.662488 0.0497104 -4.55873e-22)
(0.723745 0.0438779 5.62421e-21)
(0.70886 0.0546356 2.28605e-21)
(0.771922 0.050906 -5.3318e-21)
(0.755896 0.0552134 0)
(0.820693 0.0538717 2.39337e-21)
(0.803185 0.0514784 2.87297e-21)
(0.869733 0.0527647 -1.92145e-21)
(0.85023 0.043602 1.27693e-21)
(0.918229 0.0476385 3.1579e-21)
(0.896211 0.0325632 -2.32627e-21)
(0.967118 0.0394757 -1.68572e-21)
(0.939925 0.0196402 2.41628e-22)
(1.00976 0.0280878 1.84778e-21)
(1.0724 0.0226646 -1.43354e-21)
(-0.0934061 -0.0794485 -1.13353e-19)
(-0.114167 -0.0439878 -1.89642e-19)
(-0.027143 -0.137591 -1.0125e-19)
(-0.0465006 -0.116767 -9.91727e-20)
(0.0522476 -0.172835 0)
(0.0442187 -0.165218 2.0965e-20)
(0.131709 -0.18697 -2.0925e-20)
(0.136966 -0.187842 -1.89842e-20)
(0.205891 -0.18557 3.08633e-20)
(0.223172 -0.191232 -2.12809e-20)
(0.273539 -0.173681 5.31477e-20)
(0.300836 -0.181668 6.138e-21)
(0.335085 -0.155022 1.48028e-20)
(0.370307 -0.163949 2.11328e-20)