/*--------------------------------*- C++ -*----------------------------------*  =========                 |
  \      /  F ield         | OpenFOAM: The Open Source CFD Toolbox
   \    /   O peration     | Website:  https://openfoam.org
    \  /    A nd           | Version:  11
     \/     M anipulation  |
\*---------------------------------------------------------------------------*/
FoamFile
{
    format      ascii;
    class       volScalarField;
    object      U;
}
// * * * * * * * * * * * * * * * * * * * * * * * * * * * * * * * * * * * * * //

dimensions      [0 1 -1 0 0 0 0];

internalField   nonuniform List<scalar> 
2880
( 
0.15976347722525555
0.309417529085143
0.4721132218966474
0.4931374361258123
0.5969546636365659
0.2656196272856616
0.22596369847238992
0.37280313587039093
0.5073865789570948
0.5227535169508771
0.5540493190551423
0.3483709891723492
0.25148298653382095
0.3824821474218856
0.48380688143730755
0.48169600426395576
0.4908859202888116
0.3946986444628927
0.27301271890137746
0.3734422797730945
0.4493482195225663
0.43023501259929203
0.44507002393469897
0.4347025160947979
0.2896995384024518
0.3599176818042572
0.4047734190560872
0.38211418660568036
0.40798017408899734
0.4638121573840782
0.3082223780871671
0.34385515420320856
0.3603566217419707
0.33682637801828746
0.37697775176976156
0.4792321596702318
0.324815412194474
0.3294592225553991
0.3215471692888891
0.2966926491139665
0.3492401752060665
0.4823221265186534
0.34203697717213033
0.3186301912532122
0.28928374339953744
0.2629040794454005
0.32334643452254075
0.47496116758064055
0.3554344771376341
0.3113878937550223
0.26297369943486987
0.23491564242512786
0.3008417984374387
0.4586959444912421
0.36477646605542213
0.3072459106700869
0.24309058037632078
0.21285195666995058
0.2774554770200097
0.4342039688945463
0.3704497216677224
0.30668290155424716
0.2360549611619692
0.199852817760078
0.260583640002379
0.40470760182407867
0.37317389937108014
0.30819607656898523
0.2376945619713966
0.19798902293595375
0.24939396869547614
0.378545662244874
0.3669045038103166
0.3115374386987868
0.2457468297416298
0.2101152013764107
0.2570587348246965
0.3740981960639619
0.35719051114708933
0.31529899810282636
0.25904178000086797
0.23428786067553864
0.28216697276204117
0.3821388739057504
0.34182176988113533
0.3191147422240469
0.2756217913895629
0.26500862867546227
0.3138112811722071
0.3946080791159752
0.32671911410575455
0.3236873607107392
0.29379217310990824
0.2940305959931653
0.3428509156810819
0.4133973584593811
0.3038555934749999
0.325043914831697
0.31179981534064116
0.3221999701843852
0.3673604486355812
0.43179806483070954
0.2796914248673278
0.3272116209652799
0.3285438137217831
0.34727696903270333
0.39178739032519866
0.4456675317752672
0.2535634701000974
0.3278332078645987
0.34432453613025327
0.36764285183810697
0.4108078662708666
0.4602373021890825
0.2269209638019808
0.3252906928622692
0.3572300666098194
0.3828015367651297
0.42172807432653076
0.46791560460353127
0.20062723750725803
0.3213490867304929
0.3679630525835599
0.39111468332044685
0.42453916938006014
0.46773873767479546
0.17380802858041638
0.31556705033970667
0.3758018014404867
0.39349567136691854
0.4161676943900545
0.4584576327816077
0.14527284210988822
0.3047869762763383
0.3750979846259884
0.3860376499775313
0.39139197920555485
0.4340561738866643
0.09709211086572267
0.2659929043528102
0.3638834136713758
0.3608449689743292
0.3302345912070342
0.3806320428652498
1.3723038787181396
1.5345314151525156
1.5543049192871325
1.5310223774911909
1.4936493451878816
1.4471235242665077
1.4080559803596033
1.3688012237770144
1.3376196189709229
1.3099430691825809
1.283451417087112
1.2618478521864642
1.239920372187955
1.219474439311692
1.2009875469368303
1.1829251338650166
1.1651345291956747
1.146849236671739
1.1272068795823624
1.1079552491379
1.0875945071997817
1.0656581442651938
1.0390044926010134
1.0089852635799665
1.1904513225301039
1.5773214764998766
1.6299756992578212
1.6043388145838589
1.561656942990159
1.51372040748244
1.4678876645784795
1.4232678958797562
1.3822120890841134
1.348344845551915
1.317460445790898
1.2915920693200853
1.2679230218997448
1.2451069446313068
1.224755232336792
1.2047826306195815
1.1853165003040802
1.1658328516715053
1.1459405980660013
1.1244672953166377
1.102371432323328
1.0781838488420767
1.0497111319221206
1.0176642548589785
1.029002985539861
1.55501255543773
1.6664024679278424
1.6624777781120597
1.6275282844632863
1.5740153549789166
1.5222821406865568
1.4697737289838675
1.423038616574859
1.386652620228821
1.352104767847496
1.3202792093003795
1.2955198834836665
1.2719673211735012
1.2493074960211017
1.2273183928856846
1.2051568086272897
1.1849868382361746
1.1633320426246028
1.140983748269265
1.1177743275291636
1.0908438669906122
1.0613597244966495
1.027438711133405
0.9406859263002332
1.4919953350769326
1.6742833469249714
1.7062314170508226
1.6780281350545554
1.6279520392904592
1.5769157685643227
1.516400421530824
1.4671179628424065
1.4234639199429804
1.384201256969314
1.352368377185225
1.323047972844374
1.2966888694720737
1.2732418848429983
1.2507805917859334
1.2279615053294348
1.2049258411298265
1.1820676263298484
1.158161190111401
1.1332663607827433
1.1055086596077996
1.0743415940304537
1.037420020980253
0.9022379648218087
1.4209953330359502
1.6463339025932986
1.7205012994631754
1.7159507330465824
1.668008031913078
1.6164675723136266
1.5584176415034914
1.5058103777253609
1.4593940855750471
1.4192305400473781
1.385144109111529
1.3514337001653367
1.3247193706694553
1.2979805131763567
1.272622891959359
1.249639312183128
1.2260009815099595
1.200435885338268
1.175424399829906
1.1492949776309438
1.119271148021401
1.086904498178222
1.0485264601460702
0.8732961555127479
1.3531279119276127
1.6072015163172166
1.7112464784628272
1.7243095809177809
1.6964298189080194
1.6490597473053883
1.5887759284458571
1.5407457634385686
1.4931485159424693
1.4489228852681308
1.4125925842470894
1.3817555845844742
1.350020394911322
1.3231200315086271
1.2973709185876223
1.2698974739310915
1.2444357144612406
1.2198772812630767
1.1922801207581988
1.1652416929669487
1.133712911063656
1.0992699317222607
1.0598353989972005
0.8416860838116136
1.277895068092786
1.5509604374799966
1.678672672313351
1.7226766148343307
1.7092027277057964
1.665461829620723
1.6168327079113864
1.5702331332162935
1.5240757540573324
1.4791683965100828
1.4436882921043448
1.4098149990879185
1.376535073559782
1.3485251483246077
1.3191076462319586
1.291525903095673
1.265354882512718
1.236863302629543
1.2090043836719144
1.1800268171387
1.1472681859578382
1.112056263854445
1.0711545795667716
0.8005493098591138
1.2095380919787166
1.4805188042490198
1.6299003831658507
1.6950097766534955
1.7017090841942153
1.6740645742483138
1.6334888462829453
1.590272369090173
1.5450014505008718
1.5042269620956623
1.4685910013967685
1.4330193123044326
1.3987826734846456
1.369008968014359
1.3380612851034668
1.3124601793210986
1.2820636601385371
1.2550336094949628
1.2264356991549472
1.1943742400777193
1.1617940186736997
1.1246545446847098
1.0819657938920886
0.7635203787748512
1.133057559675496
1.4027284109185463
1.5767810715288986
1.6513811787426411
1.6777708592723963
1.661837056910385
1.6351818450533897
1.6004120715561851
1.5656866722602534
1.524359506557429
1.4895667405979398
1.4537886796958173
1.4211332710879028
1.3909942823584338
1.3608993171995603
1.3293707959123446
1.300059669901994
1.2699036870057825
1.239939708796324
1.2080111045673971
1.1744294118726886
1.1359768835162296
1.0928246308761933
0.7157345006272159
1.0601007510354135
1.327269394358749
1.497353948412958
1.5910548138215157
1.6294458557286413
1.6357564121649657
1.6291188110490955
1.5990569934607397
1.5699052907994866
1.5376239511012464
1.503808503624941
1.4724688015492393
1.4404466198688712
1.4093353094604584
1.37686019576459
1.346087047220721
1.3147181039836808
1.2868458175875024
1.2548562291443248
1.221451373746874
1.184802580437271
1.1478700107463655
1.1034785739376467
0.6660356038586103
0.9792176073109901
1.2397129222259613
1.411982712872362
1.5162716610490832
1.5683641637992816
1.5950888423009864
1.599556463018185
1.5889516144772116
1.566817079490718
1.5421544020408198
1.5135915701046858
1.4839569005745632
1.452440372247137
1.4220936000002147
1.3899929393599364
1.3607315646544786
1.3315757890257787
1.2989310298554304
1.2671172429220396
1.2329635801125964
1.1974120187269368
1.1587138102333283
1.1132505527075487
0.6117934060914907
0.8956301840734675
1.1378768546094369
1.3131992527873928
1.4273564654764521
1.4986196657137474
1.5380957761027014
1.5534748241857264
1.5571023522502365
1.5446667262453055
1.5338538671937167
1.5081598195592691
1.484311310390493
1.4580640206425746
1.4279718740006706
1.4027221504669718
1.3719776990990507
1.3428692405790472
1.3102606087869892
1.2775833626616866
1.2444283320913867
1.2079477297302694
1.1684897297617989
1.1239797818752106
0.5692962196657156
0.8085819148417286
1.0325461151617517
1.1995707695316398
1.3313919195527784
1.4151159726022766
1.4719728110010466
1.498994640786569
1.51752059852229
1.514664800836966
1.510069889351465
1.493322251241494
1.4757129250097707
1.453244149527849
1.428260660198019
1.402498959341556
1.375950648401037
1.3489299347576387
1.316896693091776
1.2863836321265671
1.2523264355645036
1.2162215673436918
1.177354392554607
1.1343459814642765
0.5350075291935993
0.7244257543035381
0.9304242072306592
1.0886733228542023
1.216964586602263
1.3133397719347042
1.3870514274632817
1.431913869557786
1.4599877938176358
1.472724134186531
1.4700506675954446
1.4692389684463352
1.4540178533824404
1.4398202767829784
1.4191801702741111
1.399872556103757
1.3750673730734586
1.349605759640175
1.319133540953574
1.288809956683305
1.2577204674281186
1.2227860349236834
1.1866441140654338
1.1439868575972083
0.5122855820966814
0.6624173162260898
0.832497706741521
0.9836117027252961
1.1074987454156868
1.2155257707202107
1.295733470391448
1.3506056279014582
1.3884187772873253
1.4126077839066389
1.4247474444764632
1.4266847083825471
1.4244686657852357
1.4142907132921425
1.3986240830880343
1.3836267076014614
1.3638411983420473
1.3418720312614714
1.3166032997586548
1.2892675311310664
1.2609174333335804
1.2279643764175925
1.1925848676744522
1.155191350747923
0.5029116954573772
0.6130756886009523
0.7431323690102554
0.8773250430914218
1.0083338369538324
1.1132278290781377
1.2005232461967452
1.2627547776468688
1.3055124977585928
1.3452882600384954
1.364106913127138
1.3735820226280016
1.3811355642699745
1.3751624561849707
1.368495958445929
1.3567514430818441
1.3441985829365004
1.3256417686487845
1.3044171581893393
1.2820976360891274
1.2567097162293142
1.2285625357426413
1.1979026640525592
1.1627006815202927
0.49524714432351347
0.5671450733998853
0.6650523630606712
0.7903481838502521
0.9118319364777568
1.0198449532400127
1.1038676268643262
1.1751374640782792
1.225627199672446
1.2629902280538623
1.293478095362079
1.3094424148855062
1.322718655789893
1.328965213050055
1.3268584677115363
1.3199240635129608
1.3144551348676075
1.3015265692235107
1.2852953179092752
1.2692944326799218
1.2473615301801861
1.2233274991151983
1.1981682004343353
1.1672713033631164
0.48840566262549673
0.5280850931074929
0.6024646911241106
0.7099286627828539
0.8238559683179245
0.9299065574433096
1.0158207201241745
1.084688558484392
1.140475097474864
1.1850807048342094
1.2142320292666557
1.237619133385664
1.2558449272541963
1.2679653103477682
1.2725819450386364
1.2735694007698428
1.2722599374511327
1.2669074637049065
1.257091333050277
1.2477069287978677
1.2301358713215391
1.2137780269984524
1.1931235440038057
1.1692864008823856
0.4796844608186891
0.4885198600330303
0.5427773958658503
0.6343498417650626
0.7474537616744665
0.8385782066812733
0.928659150060052
0.9999020658694283
1.0539689505740897
1.0996620489078333
1.1369960993175747
1.1652280162956103
1.1820821683386815
1.1962276169943227
1.2094970359199382
1.2160186905684416
1.2245021595890604
1.2239640449541032
1.2199711273783502
1.2158180298544679
1.2064377113516245
1.19484252225534
1.1808955474144562
1.163436931658769
0.464211586007645
0.4402733670036804
0.4852545433057356
0.5725201230528165
0.6680596195939921
0.7635353150487773
0.8422835959266208
0.9127497660368553
0.9672362359861635
1.0144426434098437
1.049513442076158
1.0807199002067467
1.1059413810682779
1.1257670492172855
1.1365277965441083
1.1489293726330694
1.1632789645964676
1.1716703350082944
1.1732566344000939
1.1774269175073657
1.174721484654597
1.1688605399226966
1.1607754382283877
1.1520908176812328
0.4395687269185219
0.3937849846891325
0.43128531466494646
0.5102701291844176
0.5980793557956905
0.6865509303635151
0.7621509623162677
0.8241045852669887
0.8814382028071435
0.927745477032879
0.9673586770558208
0.9941925483975189
1.0214975826887598
1.0442247469186345
1.0637449975263285
1.0806173833402783
1.0959703941909853
1.111440871093511
1.120984416884666
1.1283324063515294
1.1333423095693744
1.1329253911080595
1.1330016240766114
1.130938126774999
0.39878075393265183
0.34633152760096975
0.38315805340046516
0.44780953286340186
0.5366835544810733
0.6094205713120306
0.6854736307249718
0.7479333529379152
0.7944953222251889
0.8410161019042547
0.8764821534165933
0.9072122751487891
0.9311365368205747
0.956928224708125
0.9830673936310566
1.0059570149961286
1.0267839984239748
1.0460598091995437
1.0598542706108103
1.0747076083748945
1.0834100490944942
1.092671121487551
1.0967390891338884
1.1020452278158834
0.3297242871770704
0.2959609413622436
0.33222230136940545
0.3973768803322675
0.4759174636579614
0.5456444668229452
0.606154997340519
0.6642839766670758
0.7171716113430318
0.7521080185372906
0.7845034667222099
0.8186969965172382
0.8485974307755197
0.8758939958487914
0.8983775270608668
0.925790840291112
0.9529336979997218
0.9775576369464933
0.996682917781437
1.0150062384034253
1.029981658042796
1.0446762251603756
1.0527067566417483
1.063990885461275
0.23644013248711115
0.2534584555669007
0.2897864046604607
0.3561231198753677
0.4179627930791734
0.48216858646188354
0.5348414947899993
0.584292822765482
0.6284241638554309
0.6645120482247113
0.6924659357847673
0.7215919526730142
0.7575900927699082
0.7905962590723572
0.8222123252183052
0.8493406418492951
0.8770606124967181
0.9077427244120185
0.9304531023230733
0.953873994734189
0.9730345279788575
0.9889739553601894
1.0014716478357106
1.0189672807652685
0.04204019435714956
0.10115414262431631
0.17927537646471098
0.22145392842712536
0.23459681907264335
0.2070324785040285
0.06686717062825961
0.13854157303442932
0.19489950018948568
0.21737425316201162
0.2158377233631581
0.1892553879223177
0.0804009274813867
0.14821471095592637
0.1910434190776155
0.2022947731256269
0.1896873526311065
0.1590612302952631
0.09290098442460934
0.15454139470309772
0.18610462471294548
0.18702534134011362
0.16570910344787756
0.13174792687216247
0.10617638011523281
0.15976908571116666
0.17984188424099573
0.17524866350111135
0.14529692350580872
0.10837338402017871
0.11834409703928694
0.16241487248557873
0.17386946346221455
0.16263664383667373
0.13050144355256774
0.09070376043009343
0.12990483669671327
0.16472607378094392
0.1704460956505296
0.15307720635887906
0.11658956147403765
0.07718453264359931
0.1361219445478971
0.1659290099168292
0.16605484386982072
0.14244892149797347
0.10490163409732892
0.06534673319355405
0.14254859766646905
0.16581601546231728
0.16169614363798024
0.13723592366289095
0.09998747572798428
0.05922695735535516
0.14735105814605914
0.16423169041582641
0.1626127075373983
0.13828583451391116
0.1012191402113174
0.05930140034200687
0.15088414407822287
0.16625458703657145
0.1614729747772325
0.13921350079694508
0.10650452743034769
0.0659061526991424
0.15533075520955422
0.16775534956990462
0.16614698840047107
0.14795380042004602
0.11605902325076373
0.07848828472511821
0.1581725727782462
0.16907952787709074
0.169414470952708
0.1546334014977564
0.12245026991694988
0.0846848817706587
0.15833833036631348
0.1692664622942652
0.1735907023312126
0.16287302933674883
0.13491179280388016
0.09032161846771247
0.155704929937338
0.17024545937938157
0.18145029015534542
0.17020532535702476
0.14177138866226263
0.09579047115115324
0.1530696894531637
0.17093720499983633
0.18629257514950018
0.180364522414672
0.15260991291426187
0.10608385847785179
0.1494434493567514
0.17328030879065637
0.19117404194100623
0.18927303667545603
0.16174511074997733
0.11015504435551404
0.1431447789167312
0.17144553559084866
0.19774607133023633
0.19891521337214618
0.17264620388648344
0.1180221446987485
0.13535296655023668
0.16990404935947523
0.20282417370439804
0.2099384125341034
0.18671085751968922
0.12523056297670804
0.12428501141042665
0.1643831451838893
0.20457156320836573
0.22219315335687734
0.2026404710248917
0.13558291670539074
0.11034248763211399
0.15743372683205184
0.206905228345728
0.2292522550305995
0.22363902679159092
0.14754883250476553
0.09824060941373654
0.14719863707103323
0.2073114982645734
0.23521536861774123
0.2516454520033398
0.16375381952819112
0.08447655030726577
0.1346794626486
0.20536598680510237
0.23454878669750406
0.28732817266262134
0.18082557655458625
0.05332560605745837
0.10236885776351111
0.18418449199495915
0.20572570539892443
0.3189297776860796
0.15676107158945624
0.16434718805445792
0.21246496641027957
0.2550098974330747
0.31054940195788205
0.36008746224221755
0.4199964980109858
0.4681574770809296
0.5074711019820917
0.53868415073079
0.5726760614574314
0.6090799775610707
0.638418364750974
0.6719082274866627
0.7083799033272686
0.7449061401348427
0.7770725007497146
0.806720505750576
0.8335271927291348
0.860787266699182
0.884726100229673
0.9058379202644424
0.9244313845732401
0.9393643881990575
0.9614609704105392
0.15255873229325645
0.17937444875821607
0.22366941832530207
0.2743944110467519
0.31504084655349085
0.3486343175062989
0.3934403159839085
0.429160968779699
0.4503468489202128
0.4834729826295485
0.5289500152436257
0.5622849755382237
0.5963009960744432
0.6297022801534475
0.6724661358771176
0.7044797203368828
0.7339823098792444
0.7578185549922316
0.7896752125081774
0.8125455054739799
0.8323672953593846
0.8561031251941855
0.8733355432560974
0.8980825809965525
0.13086076957496084
0.14153946597018874
0.1740996605323516
0.2111578230644222
0.2520517654924921
0.2745077616616479
0.30498879010134183
0.3408691347284638
0.3766981308114987
0.41035933051033857
0.44183906672214823
0.4833284261478745
0.5271269185683207
0.5565086014374044
0.5968491895536976
0.6286170154974171
0.6535187937317799
0.6850242019358042
0.7086205996112506
0.7324866626548348
0.7551923172949165
0.7739637903121589
0.792641382394927
0.8176584129892781
0.1124722002269194
0.10953292065370734
0.12535492897903477
0.14791405135372027
0.16846968957562336
0.18826425680080194
0.2087908119800369
0.24176734673042255
0.2851574074089631
0.32454180953327805
0.3652752730836192
0.4080762069366616
0.44128566369582345
0.47834787946813817
0.5190316035371665
0.5489694117202928
0.5726704590373565
0.5999660080971083
0.6230471639386754
0.646474312265114
0.6700894194699967
0.6878388801132977
0.7079251324862744
0.7328716590049507
0.09180444446479696
0.08561158573408778
0.07911473169112415
0.08265845971982211
0.09332173196689408
0.09740361825866983
0.12347923507333392
0.1580967443318273
0.20254057696479733
0.24997175775163816
0.29601767572452353
0.33076495034517794
0.36743213911859607
0.40548427301250245
0.43720984287951703
0.4630382584251054
0.4925133677237057
0.5145549653751614
0.5381097942232891
0.5615620471655156
0.5791056962124728
0.6072339912762555
0.6295896027393211
0.6552631188673479
0.07254011590015097
0.05707078767812335
0.04155186706792413
0.02612024346346664
0.0058480048261995154
0.02076588451541994
0.05735819172544143
0.10373374034690819
0.14438661601502334
0.19294182397702841
0.2372609620834636
0.273306126576667
0.3112221684516381
0.3416787260880114
0.37038101505499066
0.402285431867643
0.42710368201074733
0.4441004964076547
0.47078777744571176
0.4929309427315979
0.5184831372558013
0.5364278297886682
0.5638072965855412
0.5944461190995829
0.05286390785139411
0.02932508136184142
-6.838401193953736e-05
-0.02030574120386941
-0.04519918878693874
-0.023266404518222372
0.028178675360323813
0.0739190632455411
0.13443851061858836
0.16700186080141566
0.20917454156431803
0.2422448604994759
0.276572739880253
0.3016303682981777
0.32367514930268115
0.3486555401934306
0.3770238213576116
0.40475128031162955
0.42329207008375613
0.4425453466331988
0.46084508893341136
0.4930199660133221
0.5141071140948387
0.5491398498889255
0.03422502937339833
0.0004463875833295994
-0.02774373636381955
-0.06995147629247689
-0.07521985986906521
-0.035532607021892204
0.02495925107736585
0.0893614526986024
0.1365680991905307
0.17850036378121514
0.21521194785169973
0.24760789587238796
0.2640104388217751
0.2989700469937998
0.31596573815749907
0.33192712255846113
0.355931839514532
0.38018551124866196
0.4036422389287315
0.4278968761541724
0.44710193918000873
0.48222421668083915
0.501849933108692
0.5402644467596955
0.02120798154601633
-0.009754828531401971
-0.061443953414102026
-0.09314264872425304
-0.06896924614270006
-0.006978754402245713
0.07398868894900301
0.13343542144495513
0.18507974307439412
0.2170113417760815
0.24211169320161685
0.27213169606029686
0.28956705282351414
0.3141348501297929
0.3305187518470576
0.3529946444746548
0.3727499304508747
0.3899701163917374
0.40665631188059304
0.4387857874643104
0.4661705128519481
0.4862007246011377
0.5241726051552635
0.5662203829505476
0.019421093464246697
-0.026392974854188345
-0.07652573358462544
-0.0948054640729008
-0.029772727810877808
0.061260370247059215
0.1452789384437877
0.21510552460325194
0.26276609185920974
0.28557005684415726
0.3097350681694938
0.3267472301204679
0.3415292108406641
0.3597369328017509
0.37710494163163644
0.3933372831332216
0.41011775084197943
0.42643078183584116
0.45649410851891836
0.4732492132019265
0.5080710594478326
0.5380778888421238
0.5733289718558419
0.6258845312064569
0.023089017009418844
-0.028189038197770078
-0.07147138718437562
-0.044672357225847725
0.049978056155623785
0.16172298880636649
0.25633698237251046
0.30866984949496823
0.34810383163859393
0.3653034753407788
0.3971964463280605
0.40131036094715056
0.4180126686721909
0.4333257907582031
0.4416496366166004
0.46021324940712327
0.4771836923772452
0.49311886229480084
0.5186496829641901
0.5417474219607259
0.5845321500310263
0.6228242982559554
0.6643115424677826
0.721153018055444
0.030932848063815854
-0.03131711829824779
-0.05580390529271584
0.013014489580449706
0.15192787536697017
0.27661426660070476
0.3661324868623612
0.41630789806982516
0.4501922522090924
0.4664097300448865
0.4803091508166546
0.488549376483557
0.5042130981617414
0.5196373672671392
0.5291946053921017
0.5430286298536058
0.5580692703993931
0.5818797717250883
0.6033458642878502
0.6381884369391346
0.6868377769756789
0.7307403781315531
0.7739020040464256
0.829697194126403
0.028455523959656837
-0.030759114893043504
-0.03331205139851645
0.1069876547255797
0.2746612592765828
0.40673299417285314
0.4835641265133035
0.524431344288087
0.5482576415763484
0.5592324847800692
0.5764678619513676
0.5879810792810517
0.5974602142491965
0.6179191848821255
0.6293378620927756
0.6401431810369875
0.6595703700189997
0.6804625946884313
0.7232872325419386
0.7627902960500861
0.8113198995497088
0.8573811816303364
0.9023784065440732
0.9544158643342497
0.03081221725040073
-0.037463608736505116
0.03262513928419997
0.22320496721026062
0.40628975818663543
0.5253288569132528
0.5849271893918777
0.6266585092835317
0.6422883088211484
0.6580993466613179
0.6787764260913179
0.685014411973331
0.6960733645994396
0.7109233333502911
0.7296110314887583
0.7464631363823195
0.77427301468147
0.8155391108130858
0.8493753458609337
0.894700645940995
0.9435551968258425
0.9838340717772848
1.023352922813243
1.0695494724483021
0.030437876166154787
-0.02060252731805312
0.11993360415189713
0.36642696434189714
0.5390851744930518
0.6382038683338566
0.6851107322442592
0.7184236689145973
0.7348316771082517
0.7502175918894416
0.7697091086586971
0.7843024293051766
0.7972555358545808
0.8069179910698714
0.8331999182333737
0.8644841295050479
0.8979935603101074
0.9410053377388625
0.9815621174648244
1.0232988531687894
1.0655827273912286
1.1012498050982835
1.1378330110642914
1.1684953782201315
0.025077271587009675
0.016030297542592442
0.2425991495474079
0.508527454336094
0.6555223964342127
0.7389651826656396
0.7758331274180027
0.8036432598256819
0.8194281916470509
0.825336802074808
0.8507155740745066
0.8686804750155459
0.8842179979843097
0.9118520932422242
0.945461404799152
0.9801418310702367
1.0180172882449114
1.062452778278151
1.1017786775122227
1.14133589460666
1.172070667013849
1.2006634719668456
1.2206002539346044
1.2455792804876697
0.01470797851628347
0.06674606204453692
0.3830499326864802
0.6366973385320545
0.7634597191146453
0.8285381978960753
0.8620724760533209
0.8793146099251337
0.9004392596533104
0.9137237885375977
0.9341749804737532
0.957246174940966
0.9775122072391371
1.0129939699772916
1.0510765247750982
1.090075915756879
1.1298502429760886
1.1687454719483448
1.2014396246828942
1.2353539234708304
1.255898889285214
1.2743706651651034
1.2827247747447676
1.2894128623517838
0.0035727533379519283
0.16533390929745095
0.5381603292766425
0.7559104876209862
0.857721026912278
0.9022580191916154
0.9373728425264721
0.9590251376222964
0.9728599570435007
0.9933772092235268
1.0161528066643952
1.040019730905456
1.072110530503154
1.1106943303496462
1.1485500747908939
1.1858464934244755
1.2213987291073294
1.2508870145733073
1.2796543997596874
1.299865085468454
1.3138952555808059
1.3185087263223476
1.3136537007734645
1.306983327130303
0.0008227902071304971
0.3061356284418614
0.6838616458848575
0.8532464648283067
0.9406321902312832
0.9763950314771003
1.0006710058826869
1.0249214454174804
1.0472542950037522
1.0637271443236462
1.0955174730472659
1.126436795982585
1.15990226479161
1.1989788866572855
1.2311786676998622
1.2653668985005646
1.2928491685490702
1.3163096203514333
1.3339421025881333
1.3438634331458463
1.343976748970531
1.3388862667664785
1.3215177793136126
1.304434029429535
0.02167600634935185
0.48279028718204586
0.8195142194050594
0.9500938052957191
1.008681951199736
1.0418932152926546
1.0661120226821
1.0923132076364248
1.1134964698199712
1.141538570285506
1.1680038462525502
1.2059489731582147
1.2354412266895205
1.2685403623616227
1.2983906980413105
1.3224657801462465
1.3420158459104714
1.356418547949496
1.3626051649038362
1.3623985480714953
1.3530525861033609
1.335502868453169
1.3141122790443682
1.286265155696669
0.09286522175356793
0.6669490875666851
0.913599478548945
1.0177524231161665
1.065876011463792
1.0968542587154966
1.1232619697153396
1.151547718189769
1.1795422535528335
1.209397822237953
1.2346864274797291
1.2660313590201577
1.2980202880542955
1.3244716122964955
1.3464002607979408
1.3592595807904224
1.3720222488760847
1.3742535803941913
1.3714093327829944
1.3606277016504666
1.345019378726597
1.3182041505945743
1.2918650662805329
1.2579523574000262
0.25129320101097313
0.8181156321431914
0.9963488089743062
1.0699741716499613
1.1137538750142506
1.1487309756108972
1.1764841962734378
1.2033797945517373
1.2324607589707703
1.2599085415976412
1.2907589059741804
1.318793061506283
1.3399403720797651
1.360197223652802
1.3730951860411331
1.3787637931640755
1.3822631568211263
1.3772387151148557
1.3647452668400124
1.3488967666414857
1.3270537146210135
1.300078961404723
1.2658480070711111
1.2285997169407854
0.5161024976623155
0.9171777804970319
1.0493482654974855
1.1098015074861072
1.1500236830088217
1.1891888266206516
1.2177008391583306
1.24947530284005
1.2825365062185479
1.3075774021139028
1.3329812951530773
1.3535752786352948
1.3666708025698882
1.3787160239324703
1.3843007767787645
1.3824889143752364
1.3782225262352947
1.3677810521084912
1.344957568552482
1.3276018642529062
1.3033209159429728
1.2731656269260083
1.238842184914908
1.1999720318954694
0.7780210535049343
0.9820025099075578
1.077557065545621
1.1419393227195558
1.1850482037388805
1.2198464072910267
1.2579790277040035
1.2883508616967645
1.3158318302665268
1.3386068575994492
1.3582772089458204
1.3710714858055986
1.3821464956156688
1.3850964627601687
1.3832040044807328
1.3730293657396062
1.3608249255548328
1.344151938794846
1.3273819663470139
1.3038826757327315
1.275138855429591
1.2463416852778721
1.2125156494277691
1.1731759000249236
0.08387731413828846
0.15638230740392425
0.15104326623250097
0.1624386311548414
0.20266171308141312
0.6064163793669843
0.12299254063325134
0.15140913203014142
0.12862564853539082
0.15678794240311159
0.2613898770490174
0.5372419451478484
0.13605504605570187
0.13517887451212507
0.11936107546828001
0.16941006235254086
0.3185467826594978
0.5699833748577547
0.14525254954630895
0.1261604625800246
0.12057942913097494
0.19713542783755345
0.3679533868612481
0.6047478194658273
0.15476825961269244
0.12216197917798764
0.13019040915138697
0.22724799011620067
0.41150601486731453
0.6382799643615245
0.16238312511990707
0.11854748905971838
0.1401689545408592
0.25371606107057293
0.44420568366690844
0.6673345868253607
0.16789862476002929
0.11620359969109692
0.14959719115057896
0.27821154091389433
0.47479993592644176
0.6899121130645505
0.17242256344581963
0.11562565881697412
0.15794240706242674
0.2981154809830772
0.5011115087994404
0.7171846473003567
0.17640085988839613
0.11562157820087172
0.16540302617162728
0.3115817766399361
0.5182624136016991
0.7334085760527655
0.1800072258048608
0.11525146190652816
0.16822277944037237
0.3216981701452439
0.5340221920485999
0.7470463247412005
0.18235091001264317
0.11415871401125965
0.16910894794417064
0.32370826865711855
0.5367802418213846
0.7578617587591873
0.18413626401219269
0.11374274790073563
0.16637529950062688
0.32066494300641335
0.5364162990842074
0.7601803278198841
0.18592133167918642
0.11258618319583229
0.15962918228417694
0.31294654986142867
0.5310774891799069
0.7559400215565995
0.18713621252785217
0.11250359788594783
0.15197716674121148
0.30041420402829844
0.5171662352433434
0.7498584079915762
0.18625859000232367
0.11227387838074165
0.13990206079665418
0.2816845098733534
0.49856408078138315
0.7373495359552604
0.18478210439028347
0.1134852566392566