/*--------------------------------*- C++ -*----------------------------------*  =========                 |
  \      /  F ield         | OpenFOAM: The Open Source CFD Toolbox
   \    /   O peration     | Website:  https://openfoam.org
    \  /    A nd           | Version:  11
     \/     M anipulation  |
\*---------------------------------------------------------------------------*/
FoamFile
{
    format      ascii;
    class       volScalarField;
    object      U;
}
// * * * * * * * * * * * * * * * * * * * * * * * * * * * * * * * * * * * * * //

dimensions      [0 1 -1 0 0 0 0];

internalField   nonuniform List<scalar> 
2880
( 
0.04936851414608125
0.0445397293939169
0.07546767964448034
0.10082208799309816
0.1784869853543706
0.22722748631955847
0.03547895292999648
0.0412075751248398
0.08607300112367783
0.09937105233896096
0.1465199008862616
0.19622770403029968
0.037068971135350154
0.030714303606970667
0.07097990820763467
0.09654913354915362
0.1336083588650631
0.16099116443689804
0.031825738474854356
0.028001929500329786
0.0653293215182996
0.08490916098321438
0.11736482292845271
0.17250736953820184
0.02921761604645609
0.036503871533339644
0.05138533871497433
0.07480704274011651
0.10230832888999314
0.14777510446985426
0.022705306995376456
0.025337525986471987
0.042706490435157146
0.04865654803498076
0.10662635216753585
0.13209511122621947
0.024392641771325885
0.014192478978401063
0.03064895497341369
0.05041143636923481
0.06928094431767307
0.10340342801025698
0.013282330835969108
0.01450018946112161
0.016490500679511355
0.03473115125810444
0.030820988727941034
0.08075477968836053
0.003218727776478386
0.011311210532500948
0.026404171096289647
0.02786567394642836
0.035648619129442505
0.07078431479946629
0.011685339246474385
0.006838409756544539
0.009825212671008304
0.015131056209343519
0.040493869830799
0.07194466870793531
0.006073493398691565
0.0022122785717503535
-0.0030994379860951327
0.034401101571881476
0.01751529412768993
0.08863446899097194
0.013943359000868877
0.005594823372766677
0.006912778761562183
0.0313200109363328
0.087959721623379
0.08465977359734339
0.004460733048485793
-0.0034046925729581956
0.007760730484769968
0.037734029874955555
0.07157591653280437
0.13488759867614047
0.02533468995660082
0.022409254939415507
0.01774668438423241
0.05640725209134126
0.0957794975474156
0.1644389458608867
0.017796256649311754
0.007528007628602951
0.0304242061149039
0.060228522306047166
0.10859487602679957
0.19310208113135807
0.023579989750669855
0.03323242761158024
0.0356620256825152
0.06962026611262251
0.12573674058647963
0.19072206537374736
0.022236952719475733
0.026063634646078193
0.0442028183896894
0.06809874886310047
0.13591039035579694
0.1988507847390091
0.009961717788024183
0.039025841638883424
0.041972988761810215
0.08370038540227293
0.14675696281187167
0.19149011512152714
0.010166291806829625
0.045058733966145986
0.05609771544707687
0.07971949112537771
0.1449148617847052
0.211337630048323
0.012279312645852775
0.040760554940192484
0.062162103274497005
0.08985429642478532
0.14725159474067942
0.21512929038072023
0.019168545662206313
0.03540252720889617
0.06732606484831372
0.09366630384881836
0.1399829544444685
0.2178958985839831
0.021983428610838227
0.04929973120024847
0.08712406672270667
0.10940788505775609
0.12971723223775702
0.19953964925923307
0.021044490911648686
0.05509740613123852
0.07777005891649927
0.10669539333473582
0.11685491126218328
0.16731580449034905
0.03440349146561643
0.05405775267015572
0.09042025848066915
0.12134405524576325
0.1345375159025636
0.19969614366882424
0.5962219891523527
0.8605944684142703
1.029134265858915
1.153668381376706
1.2369676051746998
1.3611400690211275
1.3984996801136753
1.4461717438868167
1.5118599944667488
1.5625387438682272
1.6272287383193618
1.6190729247093372
1.6567013473008982
1.6304358573417055
1.639991994009863
1.6394074439281348
1.610430285038099
1.5709449087791822
1.5512412725683622
1.5039167661106574
1.5042485716755443
1.5083570617418565
1.449413307066627
1.4070536693839444
0.43898447265346835
0.7189880973663729
0.955624919635052
1.1069607704650006
1.1822220148516942
1.2998872586855548
1.3851553027405998
1.4016823857988165
1.5243931648856763
1.5098760448878683
1.547542562684869
1.6037540867031723
1.6194231118237474
1.569340629668201
1.5814882474065213
1.6127135309341196
1.5646431958776335
1.5596551377810248
1.528477469996482
1.5647724466290764
1.5006012354988845
1.5020655857440508
1.4761673622383493
1.4074457237653253
0.325074703875587
0.577293071850564
0.7977278420710388
0.9640578230222115
1.0955278947936822
1.2200792069398276
1.320006991528459
1.363303240678724
1.4718888454304557
1.5245733624442641
1.5127290354768133
1.5258327965860958
1.5327878272039406
1.5345649089841737
1.5520631920068537
1.5713047399660969
1.528848747718464
1.4956754491607116
1.4964652742732385
1.4683185042431506
1.5126693807117295
1.422805649781179
1.4407400908208108
1.415055124874777
0.257717420003064
0.4291003292599798
0.6274600463578492
0.8585860401992599
0.9568331938458505
1.1068652446671476
1.224420913651523
1.2513671304304916
1.3081083793153183
1.3934334323820392
1.390764057855184
1.4128060845702628
1.4587402388223838
1.45758269633611
1.4512146803064379
1.4594974555475684
1.4395662260990754
1.4044370812697247
1.412551966474994
1.4016320033775418
1.4214535382672209
1.3946554705449228
1.3840298194714964
1.3766336158458063
0.20192330921135754
0.32519496257415814
0.5323240128069149
0.652175647637803
0.8440077372892909
0.9781905783071657
1.0698093394671206
1.1490127344155774
1.1615470777734889
1.200864722462886
1.2291299118519297
1.2488903568010223
1.275112940103934
1.2751559350821706
1.3065736086356383
1.2954893447670042
1.2991568440873325
1.3165726938928257
1.317585279967029
1.2799596605569872
1.2723567172367998
1.289212421010739
1.2980045666119264
1.2712232411999707
0.19662078477277223
0.2846508297202648
0.4027704539825755
0.5475533853999217
0.7185262653169882
0.8234388122157136
0.8739172652711887
0.901348838303571
0.9554660680123174
1.0125782096033382
1.004766165639786
1.0291681822678325
1.0898856421749714
1.093470867881527
1.140337254698851
1.1372131791353992
1.1692567015768969
1.1466954617857577
1.1708940433670358
1.1678935869736535
1.170624611756144
1.1543447740755899
1.1550482579577739
1.141922829784566
0.16085581705999213
0.26968872265899124
0.3353603263866033
0.4514947081752658
0.6046379353254938
0.6920794596856812
0.6575377880490922
0.7094875365686956
0.7045004143985001
0.7572492668539956
0.7886781151311422
0.8284783622324416
0.8644779520870893
0.9021597752651354
0.9119895706962795
0.9629856362793479
0.9658184798629101
0.9746740751841827
1.0052123157121036
0.988105691133661
1.004902581209261
1.0206707495651668
1.0101315154592518
1.0231113246084986
0.10563366504697957
0.23215634791110695
0.29495820388163024
0.3959398918838502
0.43747955547520034
0.49396006104536244
0.5563953239805925
0.4689053436704358
0.468118975875116
0.5248250704287818
0.6168715145593995
0.6129060048987469
0.6533527761122166
0.693935729837528
0.731842994626228
0.7543810764871818
0.7826051236864981
0.8053161093216358
0.8375493053851432
0.8221999614425428
0.8488578823876514
0.8750644846572304
0.8693633159390093
0.8846448649689925
0.12045984512418467
0.16919758670459417
0.2978619531154313
0.3160935128837108
0.337550077047604
0.3379157039868076
0.30662149872544253
0.33744273727517027
0.3229479081603077
0.3467171657241781
0.42150394280274206
0.42786475772299404
0.4403857204143883
0.506376596414792
0.5552185330581431
0.5947586145985841
0.5761964418206154
0.6345139441751957
0.6718812570251318
0.6896972125443461
0.6952711050586695
0.7268654754536155
0.7284083279114806
0.7554720820979621
0.1288156619434886
0.18816743275932896
0.24231620745713772
0.28495817958423747
0.26851463800512476
0.23202974955381606
0.1980546690531445
0.16385016471623337
0.1520614035614537
0.15502212623513711
0.2075109148468599
0.2918958424719853
0.25376929569661355
0.30251329057371534
0.3895162693932289
0.45650065964394204
0.4191750814776696
0.4832208406891165
0.4993992539516109
0.5104245053488654
0.572329238855845
0.5700790585415298
0.6244872554191256
0.650217830326992
0.16492339574265708
0.2539114840384853
0.30153232850134654
0.28620051196315005
0.2381202971603098
0.14187843091658225
0.04795352431093369
0.0635007484300335
0.1217632262581253
0.07187653664678806
0.10406094655541209
0.18686044683317604
0.25043276772523326
0.22923295435020685
0.21927925842311602
0.222402006692759
0.31761249203974273
0.3517823131563268
0.3929297294592584
0.4069191802374582
0.4060853277485469
0.5021311955977242
0.5128727158168646
0.5704693827136014
0.21281070722579987
0.28691931084743716
0.31043921770737853
0.20628541895149577
0.17527762991144324
0.07941742500368176
0.035051837859549795
0.043969809324751474
0.03129996435562532
0.03528482391165766
0.13755531061600434
0.06825629891395002
0.11393603813626207
0.04471125912452645
0.14569204864041252
0.15953300850725038
0.18109128339239977
0.2339879676126626
0.25061680960488053
0.2784201994789497
0.35772141264967916
0.43820895606703025
0.49779713449869234
0.5567015689471323
0.20364415345976083
0.3064287414037784
0.31569295403590264
0.22605899063567103
0.1202405961894224
0.0497780084139785
-0.009178631652225655
0.006989276511163767
0.025117087750424094
0.03549243536357649
0.01450494673152991
0.07341999039580449
0.0840667021768442
0.07592277517096135
0.1955920981530318
0.17824625183603204
0.12188114607666056
0.1986612408656626
0.2199710971575296
0.2920052183280385
0.3833988716994412
0.41946225711552443
0.4843987928990764
0.5366471554365174
0.23865140742347385
0.2830533650822866
0.316550937563973
0.1990219975365708
0.05182468154608344
0.06331224147945491
0.03789734390957977
0.04693978350350425
0.10779904453632017
0.06449978573316084
0.11825603749552538
0.10518704650696298
0.20404928029254865
0.08144916835345972
0.12377122088299264
0.14052751377552386
0.18849620941469591
0.15781483851933265
0.2948822726672623
0.3173326663507766
0.38399625176511476
0.4816975565994438
0.5635058968381214
0.6173589480836008
0.25962909287062574
0.3082879586153069
0.2938288941708853
0.1521829764417374
0.037601173281018196
0.033448692774560196
0.025780908803345826
0.13097328050730594
0.1086671206372749
0.13495744363575124
0.1228460161087509
0.15263236166133187
0.15734505977398472
0.22485979787060228
0.12473302642588247
0.22999442330812603
0.24373644543818618
0.3083242740454444
0.34959440804596553
0.4106978463144453
0.5199620930765658
0.5984575898276896
0.6254466193620499
0.6773505434179257
0.2513178087350255
0.3289133329980753
0.2230181984824533
0.06811565097311933
0.07026062542658285
0.01776045399262849
0.11705134497940295
0.1361821432752659
0.13226971734992987
0.18063291681136195
0.17730246565925867
0.20801560917106054
0.22511575302573017
0.29415172728465566
0.24985778205391274
0.30231406414236783
0.3932089036704808
0.40026576110718626
0.48000060476041484
0.5628972064127338
0.5791683002396947
0.7113925065106297
0.737355985961766
0.8126445902514828
0.28908611964579445
0.2777418820308524
0.15780385510999606
0.06822080701381839
0.009268057943420671
0.057475611225684786
0.12635145611612697
0.20200747060040491
0.11000639563342918
0.21218106588874874
0.18278157989809485
0.2751831050155603
0.2650534485557179
0.3277348253987493
0.3599997350709786
0.44954347586567
0.48681766935634185
0.5641092485173215
0.6205504428971435
0.695005125853841
0.7593534047552812
0.827131643420331
0.8677534822261079
0.9159134870764133
0.299793126708689
0.28067355490767254
0.08584383918681104
0.09468532268625807
0.1220289284598699
0.1068549226314155
0.16136659687367993
0.19164237239692317
0.22718823088051932
0.2859018898575252
0.2608402836058924
0.32453716142380773
0.33778795151803787
0.40230931816980586
0.5286503485399454
0.6012501594028317
0.6571379215599221
0.7111159421270927
0.7863152767191549
0.8542459387255745
0.9162198033767298
0.9616331634295187
0.9732345408987675
1.030271325318831
0.319071351630102
0.18001358390096223
0.09193725712778966
0.07058900968684079
0.08494176320856661
0.11221055842891059
0.20129841456074138
0.2522432777246355
0.29657379817756824
0.35282752039461673
0.33680954883782666
0.4029454607884482
0.5224831867420849
0.5881664877004296
0.6118319906495053
0.7342267189117145
0.8104819134427421
0.8921851893565017
0.9648161086353408
1.0146877449554879
1.0461744518442677
1.0749382637647311
1.099054009859761
1.111345251304638
0.32554198464183615
0.15052839171087484
0.05185109012687861
0.066315496079428
0.14907556215612316
0.20813612528188796
0.23406550440749574
0.2713724995356933
0.32781428226093057
0.3633844922080204
0.3944120883781411
0.5024491875555577
0.5894769157335529
0.7332686083419493
0.8298029395142852
0.9160257290948324
0.9845998912588892
1.0526516516634128
1.1043680079776559
1.1311859888876123
1.145346756149602
1.1788114343505725
1.1787767481955942
1.178183222642286
0.29503445385026444
0.1379835548052759
0.04920011380580125
0.09897890036840551
0.18958263841854228
0.22392852680122877
0.27810138616848334
0.32750717919097927
0.386480599239558
0.4434543839687999
0.5227478239666455
0.6696733308904628
0.7950401332703703
0.8790248636397662
0.9761774241117843
1.0585321606626075
1.1121103151345524
1.1680784386784886
1.2060634726395723
1.2283022512623825
1.2413536024481733
1.2405118197626421
1.235753415439994
1.2293838412405513
0.23456044563443862
0.05330943061468896
0.080381863773889
0.171073388492335
0.24456039317138312
0.2539916071484152
0.32635201120552937
0.3881279574188755
0.5055820176950655
0.5893459006903319
0.6949413000374105
0.8059975086808263
0.9147433445119786
1.0367958153460723
1.1172347019614357
1.1835353320011142
1.2359662830553895
1.2771271846563788
1.2963507726962193
1.2883731244002175
1.2756923484299076
1.272030052761305
1.2581450760713435
1.2391972135731446
0.17672115136084188
0.09377625540036061
0.11157289243303181
0.19226125954888695
0.2926896507011082
0.3491262082613281
0.42188794378579986
0.5170728199873869
0.5933323378182748
0.7274599168597902
0.8342140006245002
0.9598306026459373
1.0688915862631625
1.1612739546993789
1.227566526846025
1.2846682187246492
1.3098988986704463
1.3356895400846662
1.3055625731299538
1.3361034145877628
1.2970174177743217
1.3140025276734175
1.2689060395305136
1.2524510311753059
0.06768232838490329
0.11008968512624673
0.1912168342723919
0.2228822091426944
0.2996356200039264
0.45660928719565597
0.5311187345911292
0.6266221717922702
0.7382158565946177
0.8539088514366118
0.9872970756918498
1.0955964351717566
1.1958932185346645
1.2685201112026046
1.2954745520103765
1.327757761519929
1.369190900314507
1.3725176816151343
1.3289883706843204
1.3347130496532265
1.3327778433441526
1.2914542452137838
1.2811425278614101
1.2278595438307607
0.05309305067101604
0.15727949341399267
0.2589961807292014
0.20495318036906834
0.15305757378982063
-0.020722254504589588
0.1010244157041166
0.21212931970290602
0.2634272238466363
0.19715383662138844
0.1165364508314651
0.00802196604087041
0.12447133142950446
0.23384160526710793
0.24893288754940068
0.17774047147373334
0.10062806161225546
0.03480585739229897
0.14792931628873104
0.23988041931029863
0.2355786190808215
0.1636257759102293
0.1137358514341463
0.05882551879183129
0.17307159815864154
0.2513627952237812
0.21980986557733492
0.15277558684117493
0.11232098821526021
0.09859428486294003
0.19607339254018252
0.24749851132674394
0.20527232470111328
0.13603872355981558
0.0943993965746242
0.11032957109976238
0.21536884252715505
0.2566584875030744
0.19755667161051843
0.12287794478468472
0.12342084953244292
0.1254387929117725
0.23487850536746768
0.2548206296318437
0.18630704522022729
0.12240883186367824
0.09383081007467337
0.14943472929325424
0.24879924511634843
0.25760944064437014
0.17962743595170627
0.11197731627403548
0.11326604707250482
0.16551450957291713
0.2623471857781984
0.2561777453787776
0.17738085036919138
0.10235180268802765
0.12292689235136012
0.17230282252041887
0.27059553611916776
0.25349767600649953
0.1743606772662395
0.10311686186348223
0.1118806688707889
0.20543526501218834
0.277855585748035
0.2556636978841446
0.18107508023852564
0.10955213991238297
0.11447451364406053
0.18430851879452775
0.276316006880372
0.2616887932884803
0.18352389883172698
0.11000494332917019
0.11010443340805276
0.20352360002098627
0.2761913829121601
0.2572792647020599
0.19648725501464653
0.12607869041341566
0.13376417472877455
0.2254267946499617
0.27131349304694574
0.26115994559663647
0.2008715409431005
0.12441461634750439
0.1524511837935555
0.23774169422795802
0.26013361817705166
0.26059501440518806
0.21296071065751151
0.13708759583612137
0.12352902893485271
0.23020047960426576
0.25181456102545857
0.27043918125945404
0.2298128131030943
0.1576699192359027
0.12608670452939139
0.2371241752724437
0.23972044318802294
0.2772125462865567
0.247030178519786
0.16253907827317185
0.1540267274855813
0.2485729854883499
0.22216020529035502
0.27886309201969994
0.2738021340973598
0.189159880717995
0.1653475157420046
0.2554376205254303
0.19494978873809482
0.2737960866256259
0.2978443044182333
0.23192578053918825
0.18566714673114323
0.2048645141169737
0.16931780033408586
0.2660505612638019
0.3057307430193405
0.2524077871866167
0.21360727569684498
0.18845738704127862
0.14515615769106044
0.2439698707906808
0.31228219230913373
0.2955228435660907
0.26969311861261286
0.16960691026250352
0.11815916767872982
0.21300346267914774
0.3268851792331239
0.3273548480291507
0.35101583510766954
0.1502583234128611
0.06267920183851358
0.14989043614533598
0.2832234988630122
0.30203029126200254
0.4706116057302011
0.11272899865846275
0.00380645326572826
0.12502122081181788
0.22824600753427882
0.36650944634495786
0.4365335121955495
0.535680068346488
0.6341971371925774
0.7741288565697934
0.8904893825184367
1.0031456408910744
1.1160369657796017
1.2101629968524057
1.2821279324533204
1.3444838509400445
1.3654307472375198
1.3697576961412834
1.3886021244934468
1.381090875682693
1.3609415826664089
1.3426980163035465
1.303502041585833
1.281276655485899
1.2595049128749984
1.2120138173928852
0.06494585913278905
0.15375828626737464
0.24400996432589228
0.3854007554088461
0.4588451262623521
0.5932445452329906
0.737470715108032
0.8868751410904409
1.0059394110315492
1.1183540077499523
1.2314046902836977
1.2822845452610192
1.353668014118719
1.3458326188391614
1.3925958768315367
1.3686868265775993
1.3867654353509913
1.38423165669474
1.3536547719441634
1.3371024825046411
1.3013098118973883
1.265541910015001
1.2382950002911657
1.1965028954389265
0.1236076065179258
0.23238980176160595
0.3107307366611556
0.4321120068246538
0.5730572143254001
0.7331371571978018
0.8589011971645842
1.0081518562930105
1.1163284547958436
1.2236482165576619
1.3128163898016838
1.342946691973648
1.381728081246731
1.4056715033695435
1.4031413517951479
1.3935488846188726
1.3998594548383196
1.3638087921087512
1.3133141316242565
1.31030914392016
1.2834691650218042
1.2408284664059475
1.2311705586573267
1.1845934100665938
0.14524344490055863
0.2826818797320949
0.4099240775345796
0.5221725152042156
0.6786084619746788
0.8156594313139646
0.963486837635337
1.0859223344716928
1.2007084447538154
1.283846518660975
1.3745039869373623
1.3976347577496533
1.4098069682240695
1.402652253408174
1.405239632331439
1.3755730360031222
1.3743297586510257
1.343832604398453
1.338170921117986
1.3031011499587075
1.2589700239666781
1.2369651715253638
1.199088914836061
1.157588267152959
0.1643007506414027
0.30634051665978285
0.4387807302683676
0.5831810603272334
0.7554429706526012
0.9252229214750671
1.061204098633715
1.197595174937114
1.2872293481375094
1.349087830399152
1.3693387563402977
1.3674068594146518
1.3874558501795395
1.4164814487582271
1.3730738224038068
1.3665706911307232
1.351077405493089
1.3256924988158072
1.303384965130436
1.278298170844524
1.2485641071409586
1.2252701920674842
1.193823553425509
1.1453158470837406
0.1787544265883293
0.3211739963405638
0.502579537725315
0.6924002576310584
0.8659882631627572
1.0314634314543543
1.1432583434140546
1.274520460525683
1.3145736719578656
1.3777536571389937
1.4078887533123088
1.4287563908957122
1.403494420730873
1.3897517621385778
1.3768968823895693
1.348358490832851
1.3154429496980078
1.3181349738315429
1.2847252401799787
1.2728514683043266
1.2442747503773472
1.1965250416043598
1.178184808847952
1.1361874645334629
0.23754989818887645
0.3619775388431114
0.5778643216000716
0.7725535098924993
0.9616809937843497
1.1254272008822297
1.2093588116471492
1.3056644234584476
1.3472997662561124
1.3984131404918456
1.4096786816130273
1.4179310022543308
1.3866846410613467
1.3468226054951133
1.36671752887618
1.3495840716699519
1.3226509229753962
1.3103512093071117
1.2580904053573851
1.2553046801701828
1.230862147888583
1.19130491212365
1.1602371925586463
1.1216643228416072
0.25507966036292673
0.4481990309169545
0.6691378421096355
0.8806310744216859
1.0476706226585706
1.181048121788959
1.2821535541338684
1.3395674463917986
1.4073289029517297
1.3853377550149908
1.4007349257702493
1.382758250379238
1.3801440482130085
1.3666612000751182
1.321262487736599
1.3188287430934713
1.3006208727067108
1.2873219672367677
1.2486777059148333
1.2298522346642837
1.2225671279740256
1.1791409465424325
1.1489372815159191
1.105308015165686
0.2743921643131062
0.48240270405651386
0.7459407700439622
0.9423361072849755
1.1104971487246342
1.2478054202844886
1.3003954778794464
1.3417373278943836
1.3719713782151821
1.4004643477832746
1.3796809271264834
1.3821213356022342
1.3551975835635544
1.343707743946857
1.3310892064303803
1.3023090207048786
1.2757308070427475
1.2658014233869923
1.2283090358740163
1.2196148268325324
1.1947259079444645
1.1631380928053183
1.1318267755765428
1.0935689031401372
0.3250416340748985
0.564903193035713
0.8218590869692596
1.0184393069613882
1.173842843055444
1.275728077465392
1.342315855527339
1.3535679199011845
1.3765959846473075
1.3424038004796552
1.3718689924221272
1.3698856413980924
1.339018144163962
1.325270845994849
1.3208732861022097
1.3077196265708964
1.2751068885738583
1.250568876247834
1.2325999629925344
1.21309786383084
1.1891689308069413
1.1450593398227138
1.1215108231072881
1.084021280262971
0.376307889437419
0.6396466761607252
0.9152611572518033
1.092890525128396
1.2318950074153259
1.2825586832680549
1.3848787060241172
1.3518303843865502
1.379036799710002
1.362005376477154
1.3747263250844621
1.3416374457634699
1.3200524099073574
1.3199048927831392
1.2986626642769634
1.2665328642330806
1.2725478336956773
1.2475643098162903
1.2083949914349184
1.1953726314585351
1.1613404121304827
1.1413884963396306
1.1102665780604142
1.0724946617617257
0.40889523685331486
0.7030129613577677
0.9733193091359968
1.1827249168023495
1.2593284797565134
1.328307205795875
1.385764286702074
1.3811743560948644
1.381319022143559
1.362035986122633
1.350984927674081
1.3283487210490998
1.316869037353663
1.2963204416965892
1.284012852305961
1.261329684237571
1.2376960249872961
1.224016349635552
1.1937481463192432
1.1752021775232449
1.1579200734805268
1.1384895710427392
1.1040444608886806
1.0663898211111913
0.4429777911566701
0.7841245680981566
1.0395225907276113
1.2051013129367636
1.3209269554387004
1.3346977396129343
1.3851853591278844
1.363035796971924
1.3496464040706515
1.336090360305921
1.3365816406674997
1.3087712440783317
1.2869211432774952
1.2846223596715602
1.2661315738736976
1.2504392917150056
1.2263264885373895
1.20521693731321
1.1947150195779572
1.174071619785963
1.1437032217117842
1.1222136742869113
1.0963228220301544
1.0601189733431284
0.49521442863254234
0.8769406598779275
1.1294659419286663
1.2480475885773585
1.3124795049817926
1.3384491919322643
1.3866592890834823
1.3515304093826574
1.340513834634176
1.3224257454814738
1.3046062759877495
1.2926864467796149
1.2822049692883262
1.263786507305232
1.2510420203042643
1.2375007694864626
1.2144414028071668
1.194180190534751
1.1838438739450787
1.169343088120244
1.128754960494194
1.1196784500855999
1.085046732349765
1.052370419207735
0.5471240243996696
0.9380322422440115
1.1492042361523747
1.2595644203429364
1.3318672838161778
1.330915919783973
1.3476098235973526
1.340351536238447
1.3329265010093585
1.3249596730357793
1.303019910188078
1.28176650748419
1.2534789680564358
1.2579678260067673
1.2342681369510449
1.2201637447306621
1.2162892103319112
1.19187117426995
1.177600883960649
1.1527924631200552
1.1248733799168327
1.106999843856302
1.07622169709437
1.046520191410553
0.5935322621018513
1.0212104691735675
1.1647164937580423
1.308922394780846
1.3243764375787737
1.3290215116410773
1.3241042168371067
1.3090565590912013
1.3243518773829952
1.2935317501477999
1.2763883591239997
1.2631632254070648
1.2628381861277915
1.2404197795735663
1.2279955336365393
1.216377060683624
1.1866503774762227
1.1741925231275796
1.1596109442597127
1.1393062767626247
1.118918232449172
1.1008784104010054
1.0741642585810698
1.0396765080226702
0.6555964838130663
1.0592056335464948
1.265173359750744
1.3508682647438177
1.3489024707179802
1.3279182504140683
1.3324286112026111
1.295193014560494
1.2972885417648856
1.2871939245823403
1.269030043698494
1.2528020276711314
1.2292295895947554
1.2263292050912187
1.2179475455565933
1.1941835335059134
1.1879913790101166
1.1736939170285197
1.1526461522097255
1.1357161824231312
1.1162135652158889
1.0923325446235352
1.0688828551623917
1.0363483968512623
0.6789930293018629
1.1092006967269628
1.2626796254822055
1.3135416131907693
1.3140603560174906
1.3245291568499904
1.292518222295401
1.285716626234937
1.2709720207629434
1.260668125835271
1.235843880057319
1.2332784567562745
1.2164693767329098
1.2173638427125104
1.198940999571948
1.1943458957539967
1.1767488024511294
1.159860277520459
1.1445687866891052
1.1308186164483793
1.1116778742220064
1.0860587554409087
1.0611204873776252
1.0341559164928462
0.7191754838991382
1.1264992452855562
1.2701939444451662
1.2797015672027354
1.2923886494712196
1.2821551049983149
1.2843833332701766
1.2600900624771474
1.2456085029882646
1.2411307990422293
1.235738259689366
1.2220006465094981
1.2104299960075688
1.1968353550459905
1.1901459119669429
1.1683223651296806
1.1669749922879986
1.152690967133867
1.1363855031325314
1.1213873503865006
1.1052668008360214
1.0823819155863843
1.0583929027136754
1.0284701366271964
0.77104584913907
1.1662396861503221
1.290816429912415
1.2883694152372034
1.2862843107068767
1.2814349290659315
1.2510172245663538
1.2413963597408686
1.2252663000914514
1.2242073612763216
1.204533919298286
1.1986973906503027
1.1978697477229645
1.1879623706550575
1.1702959005000386
1.1672410376087055
1.1566335381062944
1.1432687881644619
1.1258212084220145
1.112387124158851
1.0969329943678026
1.0791611711867548
1.052728650945039
1.0231850104021398
0.8181439319874022
1.1765871972051114
1.2555835888104516
1.2706547531247494
1.2265557825886675
1.2347427767134926
1.2320781862673194
1.2118809099788168
1.2063371099496014
1.19196561681516
1.1956445255201726
1.1808719319976646
1.1730407753870362
1.165379084085804
1.1603362818937237
1.1561479365316112
1.1430175824166913
1.1325912138073109
1.1208222652142223
1.103767584135305
1.086641089839817
1.0695531255002662
1.0454998698790767
1.0167696668877155
0.8798750409857887
1.179700490186662
1.2265348033260879
1.2343576464267496
1.2365052293899421
1.2033362335496967
1.1911349182304591
1.1809703513120973
1.1817119825850875
1.169741835109952
1.1691451841956657
1.1663278375966206
1.1580422717677694
1.1529756507875293
1.1515111570242325
1.1419934482057346
1.1281940526435914
1.1227042735107324
1.1117686569849732
1.09395021921993
1.0822973231450392
1.0625825193980647
1.0408263339237684
1.0149139101455462
0.9609214274039211
1.1762703453301857
1.1943722308307725
1.1711094455772921
1.1719063192348012
1.165731851749376
1.1592379605716898
1.1493202018576703
1.1497555048615005
1.1463098850305664
1.149943227018961
1.1383674057413367
1.1414886161431692
1.1336947817816787
1.1317472671308233
1.123930849675442
1.1215150337377562
1.1122632581912346
1.0966685134248921
1.0869233962573022
1.0760384923854187
1.0593659160793842
1.0343066962372143
1.0134728983755965
1.0001878444980878
1.116835670092391
1.1335205631832455
1.124449194911787
1.1319431794908583
1.1288652887002875
1.1226273677192578
1.119602554051322
1.1172660508769052
1.1193281823184935
1.1220145762172107
1.1253721852907146
1.1281634153006603
1.1258484115885476
1.1219732660078545
1.1187776525208044
1.108536807574363
1.0960694225205179
1.0909254792987348
1.0816001318921793
1.0656360773620712
1.0525611517338511
1.0339643251032542
1.010569932077789
0.0675434130765169
0.0773250431949729
0.054456213176532736
0.09371257668577129
0.11166141516927613
0.4972520015289691
0.06653148202163597
0.05154684809936996
0.05191458105862348
0.07145556879447337
0.11075616952451384
0.29816651482989764
0.05852150759654608
0.03925784473991223
0.05697307144128724
0.07183398764341678
0.11806835328863963
0.26950784346990364
0.05467604820092771
0.04212785140243577
0.05259336778532775
0.06518954702392135
0.12561051521460756
0.2512689437951302
0.05016848872999033
0.024093985766679094
0.04838720757961784
0.06513018211752872
0.10778403289428368
0.2537047460610894
0.050616876879667067
0.0359862933230132
0.053348885545777186
0.05446264421934005
0.11121637300319692
0.21398085560479096
0.05065775914509052
0.023317979897346908
0.039993165166576555
0.05126428201162089
0.10495155647665533
0.21061047729860977
0.043938082823784724
0.029115859918717985
0.03039508277498723
0.03652768352676761
0.08207540424331439
0.17832910784661937
0.03771821192804864
0.020521051224725723
0.02534709699099638
0.0433009033582219
0.1111014256768667
0.17494400048295086
0.027892129458021553
0.02080973761111854
0.029407367519894062
0.0406159764707244
0.08566171297411246
0.15486189152946805
0.024256979290435576
0.024588183301320204
0.025251539900275705
0.03673850899264247
0.09552772014209254
0.15407839865206474
0.023209943876732086
0.022817666336334697
0.014770445406111471
0.048396222669442684
0.08131037458057588
0.15612013039501815
0.027962839824406227
0.013385976277198897
0.020090057553050378
0.041294344288589135
0.0949286395291084
0.16243911085595564
0.01780776911163623
0.024446702150780292
0.028028562657742645
0.06180484216534518
0.10186199258890594
0.1730030995100913
0.02506054774264399