/*--------------------------------*- C++ -*----------------------------------*  =========                 |
  \      /  F ield         | OpenFOAM: The Open Source CFD Toolbox
   \    /   O peration     | Website:  https://openfoam.org
    \  /    A nd           | Version:  11
     \/     M anipulation  |
\*---------------------------------------------------------------------------*/
FoamFile
{
    format      ascii;
    class       volScalarField;
    object      U;
}
// * * * * * * * * * * * * * * * * * * * * * * * * * * * * * * * * * * * * * //

dimensions      [0 1 -1 0 0 0 0];

internalField   nonuniform List<scalar> 
2880
( 
0.07559484571324382
0.14980276304764675
0.23064464802013926
0.2745168743343263
0.3455787860381439
0.4448010672531139
0.1070359332106962
0.18137623392335456
0.253860640078065
0.29430946861446744
0.35695666294072875
0.42552227851409063
0.12144094633545183
0.19146997654709536
0.256853985810581
0.2970343100226151
0.36177206316141797
0.43922179205190603
0.1342149584197006
0.19847091960635832
0.25690991866161533
0.2975044851202632
0.36708202922749456
0.4519645673543739
0.14770239826828926
0.20426023412280117
0.2558880526647208
0.298167264765289
0.37022266091130424
0.45980610090447965
0.16059475526374045
0.20858754274788752
0.2539682140443244
0.29831413241027727
0.3715482072558753
0.4615850364685578
0.17254611907728107
0.21194478678464307
0.25236008200490995
0.2977466143160957
0.37116929425059125
0.4599431906101583
0.1823924441902692
0.2144178413212583
0.251005519597484
0.29707734117005274
0.36972399038857096
0.4562837755994222
0.19041500311180712
0.2157978671112471
0.2493385846374961
0.2960767982875601
0.36773331795698466
0.45169503835651803
0.1966809123447737
0.21692352660574124
0.24807810969739308
0.29498277125666134
0.36610554368258014
0.44790788554798616
0.20132301343345077
0.21813313776864793
0.24841158087172308
0.29532084848505913
0.364823593895422
0.4446265609385691
0.20325816849963568
0.21914954842674084
0.250208701202664
0.2961408797408382
0.3644660122095519
0.4425076202431579
0.20380740053060276
0.22018062226038193
0.2522508893129889
0.29892350896768505
0.3661216797350021
0.4425385650297455
0.20164136220933754
0.22046220353878274
0.2545548414909269
0.3031810206244191
0.3702049642778806
0.445655380758845
0.1975904229232737
0.2206923142922874
0.25689117258578426
0.30729951836559866
0.37505851802268014
0.45036185648275107
0.19159727170952132
0.21990661084389665
0.2594618808706382
0.31063496002460106
0.3788538626031567
0.4549794421751306
0.18371808322615302
0.21923450079113546
0.2616838041644392
0.31340899078735585
0.38236431121180176
0.4589672713880333
0.17433939908214685
0.21745304108922925
0.26330608867816063
0.3145754108511892
0.38439267074845485
0.4620724850165289
0.16229741449901605
0.21331218041754735
0.26458630037497705
0.31495928659097205
0.3848883165921545
0.463533700111267
0.14817544861576665
0.20728284452084442
0.2644011698171228
0.3131432108303329
0.3831648187362553
0.4620330783896073
0.13242831753458842
0.19830008397320364
0.262910135619779
0.3118205735908549
0.3796674202117807
0.45684501294729185
0.11665161303131956
0.18705709326709322
0.259444104984868
0.3082854126788356
0.3753446969414666
0.446681728913369
0.09932162198083457
0.17218550252488912
0.2509930134232875
0.301318941375885
0.3730421723661546
0.4324570603476729
0.06650590591957822
0.13754743670418138
0.22545565424976147
0.27492012055076076
0.36862060258346735
0.4255174049818146
0.8313195445444763
0.9107182929799329
0.9469886829420502
0.9678917245512014
0.9828913581582079
0.9932469057897766
1.0015153808615511
1.0172215941433633
1.0349972231086835
1.0519501494318453
1.0696038390650635
1.0841763341743198
1.0951964780420116
1.1010164760415595
1.1031115803447027
1.1037992756823793
1.101486658114105
1.0966742602177812
1.0901757527116664
1.081818123042297
1.0706177235730792
1.0597018509513645
1.045165696616286
1.0274976098133175
0.7443731527864208
0.8867317617684155
0.9387353741743664
0.966206066958271
0.9833151655521596
0.9965819155695673
1.010891328432877
1.0283046972792484
1.0494431202398145
1.0688899338535094
1.086222280635889
1.0985164884919971
1.1063625198860183
1.110709861642784
1.1119102216356913
1.108931042392268
1.105728092577952
1.0998169550847194
1.0917325694296236
1.0826163765271173
1.0704698205706091
1.0580965585197404
1.0429172854681885
1.0251926004686678
0.6835302426339359
0.8467914612143069
0.9155591421490392
0.9552131801622648
0.979158098132876
0.9981037216342279
1.017930197482188
1.041107757018672
1.0657075538874543
1.0852339259883756
1.100859569022451
1.111493991640726
1.116590658982046
1.1180128400193865
1.1165726813944366
1.1126800544569977
1.1073684393094096
1.0991671571192632
1.091789774314346
1.0803712902403615
1.0704732958200587
1.0574814248560263
1.0411894761762104
1.023540863612213
0.6476920750176008
0.8039260815574285
0.8859861631444857
0.9346213280311886
0.9673108337446692
0.9942008283166486
1.02474370903691
1.0523938520748777
1.0766750236838216
1.0980532018323592
1.111548515307073
1.1197220225807873
1.1227646239135018
1.122320995481896
1.118972082061219
1.112768517935949
1.107547802504334
1.0985614094747598
1.0892660155936018
1.0803172582224367
1.0677192577924446
1.055363589802873
1.0382504239625445
1.020871501125872
0.622600288523804
0.765655059624477
0.8534478744673673
0.9106923283820998
0.9531365490631992
0.9890329496089774
1.0252125019068539
1.058491624999957
1.0868995675617894
1.1069596690857386
1.1177368680865325
1.1240225916016429
1.1252632412001813
1.1231083324164723
1.1188102292204762
1.1130898536886904
1.1063157878878738
1.0969423454415843
1.0879354324532677
1.0778632729341613
1.0665228997576517
1.0528295974882027
1.0359746124945703
1.0181444388335241
0.6025730695200083
0.7338683379541985
0.8240109859328381
0.8887761981488069
0.9381392812958997
0.9834481146522299
1.026626568137204
1.0643036271927206
1.091307435827616
1.1103296248893588
1.1195270901907148
1.1229978936973748
1.1226762395052277
1.1213610054629561
1.1154274694402466
1.1099615232716604
1.1009670747369296
1.0950070615128924
1.0850828900081217
1.0746999513759148
1.0622404379957269
1.0481694970113622
1.0324833709534957
1.0160059914348658
0.5865957912861797
0.7073244794911213
0.7981134937807415
0.8682476962580585
0.9270615219131574
0.9799044072533544
1.0277989192062493
1.065587075031231
1.0950888195824453
1.1099430677022954
1.117891810087826
1.1210138843052764
1.1202524664087006
1.1169278300921819
1.1114157650896148
1.1049908437091904
1.0985463861528861
1.0905341213299828
1.0813362033307492
1.0712881319282261
1.0601188735010707
1.0468628721812057
1.0305274942248495
1.0147751502255715
0.5710740316222169
0.6855968329523799
0.7779625904179983
0.8524119419185802
0.9188264911605901
0.9793733895049402
1.0310495172016179
1.0692473104383862
1.0934534508097282
1.1081602559046557
1.1143421485789282
1.1162192252159482
1.1146046332670372
1.1119521816907272
1.1067379790103533
1.1009171490018514
1.0959994801667674
1.0877627057719235
1.0791168898881232
1.0686986617624168
1.0570171814404181
1.0441914363011917
1.0298531743955242
1.0147125236162589
0.5589092507454417
0.6699376777617525
0.7633853607195369
0.842615264142061
0.9155298523482663
0.9824407060790327
1.033618970451269
1.0670579019724995
1.0895516068952464
1.1024174662401265
1.1076750552497354
1.1087746292182084
1.10782429524715
1.1047923260463492
1.1017428569146948
1.0967142969154493
1.0893753171146128
1.081032437191277
1.0743629722961774
1.0649220381955415
1.0558580204599597
1.0439845306790148
1.0291316435822027
1.013115791592366
0.5505403218628873
0.6590750464761201
0.7540004048223159
0.8385873551391141
0.9176130912705218
0.9850046022404664
1.0351736126176327
1.0664655763561195
1.0852090654160247
1.0962439716538386
1.1004839375944517
1.102122740622975
1.1011183278531442
1.0988456423909547
1.0949620579795543
1.0895905668407906
1.0842218848987344
1.0792256071115034
1.0702845068089972
1.0632288206089116
1.0537888156378215
1.04280234841989
1.0296513825959168
1.0148307704478263
0.5438447477330547
0.6527819316822078
0.7504190374983858
0.8418503064852023
0.9243361274169027
0.9909236200476015
1.0353081001112545
1.0626321476562732
1.0794195112014398
1.0889466508016614
1.093211704856124
1.094238375088059
1.0938336922139236
1.0924426056892822
1.0885733411352354
1.0852920318164025
1.0800581780232383
1.0753351763971475
1.0680996818641695
1.0609965745834389
1.0533097296927179
1.0438541809366984
1.0316606124757521
1.018101929348543
0.5403403096531721
0.6516121049606383
0.7522702614774165
0.8496155666342463
0.9337715888713646
0.9956934340629185
1.0364863312295909
1.0605425157438833
1.073645873209542
1.0810708579907373
1.085524584806901
1.0869587914523036
1.0872320833372597
1.0850611934266012
1.0834003465256357
1.078947402779191
1.0752435254782047
1.0713653614728933
1.0665807791058972
1.0611353967815178
1.0528223502401606
1.045421686548025
1.034289269198812
1.0213864389576843
0.5407104608468327
0.6542446997563306
0.7601057775751348
0.8628410555852536
0.945414205441615
1.0004833994361946
1.036204605444031
1.0558264860580895
1.0684165545857898
1.0742094318463118
1.0792492380693035
1.080229903849764
1.0810751591196186
1.0795501726477377
1.0779206892668578
1.074771738020283
1.0720064842799166
1.06943464691278
1.0661738595388384
1.0613383622762573
1.0560574946859929
1.0476365239698249
1.0373388903127363
1.024722513441068
0.5447917766885804
0.6601708216874974
0.7745935622458486
0.8793157417442556
0.9560213759482512
1.006032417971259
1.0334173520446825
1.0524393068378932
1.0627231687249996
1.0691429010900555
1.0740442737821154
1.0745380347313496
1.0753690888002816
1.0745330455120166
1.0741546901525028
1.0732113728018295
1.0702049951734545
1.0675757073545553
1.0663437465082537
1.0619724056037025
1.0570221666781017
1.0505496786943511
1.0396713100738615
1.0292820912862446
0.5512657032104216
0.6699700928588311
0.7923092464975512
0.8963117468990754
0.9647384097880045
1.0063525104388762
1.0316848042919522
1.0482613988781073
1.0572134316047437
1.0622613535718144
1.0668848734674499
1.069720947701512
1.0709807055574605
1.0720397444085443
1.070691323551663
1.071399004797582
1.0695219167110253
1.0695239993839722
1.067941297646227
1.0649015009454519
1.0608295886849077
1.0537558611057742
1.0443513002569333
1.0328350477250818
0.5597609333394412
0.6877107930327938
0.8170454453290963
0.9133135456233588
0.9739238771756958
1.0090462066893857
1.0306914124323179
1.043271487924636
1.053964414781865
1.0593235727864787
1.0631114016640593
1.0651756484506654
1.0672106803844832
1.067479437961998
1.0698188631636825
1.0709144010544045
1.070498536689273
1.0694517764318139
1.0697507187322477
1.0661891383005109
1.0623912707294707
1.056025184594891
1.045378144708962
1.0345572889674859
0.5703222249300971
0.7119689722863325
0.8433291314166459
0.9300892928032723
0.9797817519759684
1.0089667087639136
1.0284478571490872
1.0418725275374396
1.0497917040127323
1.0542194227808626
1.0582441957064224
1.0616073494597078
1.0651684266816526
1.066353105466335
1.0681318883345272
1.0710214659334685
1.0722618772335673
1.0717369075473469
1.0706870228065348
1.0684614121801823
1.0635992147065232
1.0571625423735098
1.0470356001057683
1.0345209848662202
0.5824002900621496
0.7409558188702537
0.8703690183376372
0.9449508204000951
0.9856121909561177
1.0113458882328388
1.0270442910341189
1.0368189007540174
1.0451536226021814
1.0503412492505044
1.0545682787544244
1.0601576141651956
1.0628422292122006
1.0656991689160278
1.0688266225483023
1.0718728594893319
1.0727008275232524
1.0731029714002511
1.0719346323170051
1.0709466862459158
1.066302219555739
1.0582578673796819
1.047454246645418
1.0354243054010615
0.5973312415856349
0.7763388157041862
0.8947360813040477
0.9546137491955002
0.9884524280148236
1.0084419177759567
1.0228694473239721
1.0337258683084893
1.0419007665187543
1.0461629164244814
1.051787074083601
1.0571429070184342
1.061109323336742
1.0657202061530011
1.0711293929970382
1.0732258542634032
1.0740715335555198
1.0752224805440005
1.074917691277508
1.0721011064098094
1.067369322229699
1.0591750397899053
1.0470503906357653
1.0333844338217308
0.617226572968106
0.8141349997762273
0.9136475785006954
0.9630294969611677
0.9910621158351645
1.0075015262788614
1.0195885710794164
1.0289138179316768
1.0361115236834477
1.0420159728905882
1.0498230707133893
1.054768579861619
1.0620772827660803
1.0674137742582694
1.0713214457835907
1.0758699037511374
1.0760097327109197
1.0756727468318756
1.0759119881900046
1.0712140857138146
1.0664942086532665
1.058420388382065
1.0467542705127473
1.032198724353389
0.6474893850847477
0.8502302900963681
0.9284739424968029
0.9656973297388669
0.9893735632694605
1.0050097899659594
1.0161445304107397
1.0237731859525017
1.0323909172612582
1.0401961122714305
1.0486207258895437
1.0558287316356807
1.0624202334134383
1.068640832395287
1.0726106604270857
1.0745236681976915
1.0771960601637525
1.077374590472012
1.0767612400796727
1.070876274747752
1.0661486100067898
1.0567834201372903
1.0448150332213588
1.0302269598815326
0.6932980653098244
0.8777411736565214
0.9384758657142476
0.968622821702545
0.9878006898953795
1.0007265985083584
1.011158801263924
1.0197274020410225
1.0284738483847307
1.0374493601455876
1.0479406609229742
1.055822230753699
1.0630199340010953
1.0697573623414671
1.0735680915999197
1.076621774368183
1.0795485634483055
1.0779774551350985
1.0762785810884754
1.071178894630702
1.0644137485709553
1.0551060989988321
1.043550396106209
1.0290759501731142
0.7566468575146309
0.8955573716972093
0.9411963567312426
0.9666176894915153
0.9841677240207365
0.9948267111081176
1.0062784878980742
1.0148630563692422
1.0241621165922896
1.0363628024850862
1.046842799235625
1.0570446624297587
1.0665379607927472
1.0715125097329896
1.0743611769926258
1.0785257370196684
1.078210675671703
1.0776761639340837
1.0746255740526693
1.069555043587871
1.0618365005162147
1.0522547668966449
1.0401609077427665
1.0271330354269734
0.8229263176297521
0.9006720960496094
0.9363017345465042
0.9610482858597452
0.977749117801794
0.9897058815471191
0.9993827174269608
1.0120210181876113
1.0237497429980638
1.036473040630039
1.0485936954188502
1.0578401639364143
1.0674491416202412
1.0737439397196105
1.0763511049003949
1.0793151542969635
1.0797773018137464
1.0768673832806908
1.0734008266512458
1.0674986971094564
1.0604699897694054
1.0509804364942452
1.0391923963733178
1.0246390900451228
0.06781437072241918
0.13485005781647513
0.21367588069227758
0.2664449934166501
0.3337272506110056
0.4488291907922918
0.0958038382376034
0.16419728610348644
0.23639860057488585
0.2832432806722852
0.343125698118724
0.4116206658392729
0.10917442073601083
0.1754335440078141
0.24106967702132726
0.28545523963759134
0.34557740421688965
0.4135283586174954
0.12107439185730316
0.18394198218620886
0.2428354646517292
0.2853109651218134
0.34505776918891035
0.4171214014733783
0.13339777427125984
0.1907446393392784
0.24279611989421723
0.28426190335782453
0.3436599824094176
0.415203858580997
0.14520487313681738
0.19590507365572704
0.24272657740148246
0.28330921827157945
0.3412475872113055
0.4107286466556495
0.156058367052518
0.19957575553192441
0.24212334025659127
0.2817550631648668
0.33804104095534615
0.4042061319820455
0.1649308832250786
0.20238562317890216
0.24059280277890294
0.2797974977629864
0.3341280020841512
0.39700652473608977
0.17192509127871242
0.20443318914578348
0.24011719229700504
0.2787392572031932
0.33103898315106045
0.3907593786371089
0.17763857808283068
0.2057913709103005
0.2401797916745376
0.27821704790912605
0.32905111534250253
0.3867963422722999
0.18138933827354353
0.20700393170794903
0.24110346895035403
0.2788442296087787
0.32906558965650307
0.3856901919007559
0.18352055100233655
0.20798439221284254
0.2422387309077743
0.2808501282572037
0.33155574607889626
0.38706283476611947
0.1837244848847773
0.20867718996536605
0.24436769271295458
0.28467054477468656
0.33546572777587924
0.39072661358394256
0.1818418176955154
0.2090687083463025
0.2465786417478798
0.2889170917166501
0.34118182878108183
0.39701573346405455
0.17844623627775696
0.20847482716274907
0.24886395122009922
0.29326946849590574
0.3476088378609619
0.4039578940800623
0.17305246454762943
0.20752671531154784
0.250645725970283
0.2977563878181643
0.3539118792901334
0.41169443986772536
0.16617532322831818
0.20561208817763746
0.25177052580176673
0.30143494532812865
0.35996289080428717
0.4198892348027529
0.15752585339487366
0.20280215121296813
0.252914188770844
0.30343887607065045
0.3646826708324696
0.42726465466242636
0.1466895223171361
0.19842485864785708
0.2526786688183865
0.3044458619601553
0.3683805433427339
0.43314398021612427
0.1340006237519368
0.19165193533094732
0.25087263655150627
0.30347557219521776
0.3694862908841475
0.4376425033291479
0.11923613647893089
0.18173219135509522
0.24789651604667104
0.3009755146869826
0.36932761070137
0.43909573810548785
0.10466796004814993
0.16969365479595894
0.24172439992858608
0.2963751288883885
0.36665865288199256
0.4368926049396097
0.08898164903497242
0.15456836673473326
0.23198158015284936
0.2877052941464291
0.36248445651486166
0.43194548549127026
0.060522610052407964
0.12225700240659472
0.20456004645859602
0.26154774376594847
0.35095657201560054
0.43810374023501913
0.7964964570783821
0.8822054574762274
0.9241292568985608
0.9509659307809984
0.9675160749912441
0.9822094602601275
0.9938567134593874
1.006882655683377
1.0218060815435603
1.0369436540234205
1.0508553237862681
1.060307436997623
1.067841066378913
1.0736428040482977
1.0796986483156061
1.079839301129119
1.0784600046472639
1.075189515405106
1.0718261552115955
1.065532383213839
1.0586682450487424
1.048598948286528
1.0368483800839268
1.024013093519401
0.6904472211777297
0.8371839978700694
0.8991752216350374
0.9337739542207781
0.9552288105372102
0.971219440202374
0.9864761952730869
1.0039483089066692
1.0213314084133496
1.0378036182561257
1.0514873062361074
1.0615729083946777
1.0694065791045493
1.07535109774543
1.0775989959689762
1.0787421916559523
1.0766789054167523
1.0741843540984577
1.0689129062721567
1.0630641136028909
1.0550433500056786
1.0449866214518106
1.033599057216254
1.0204766587344298
0.6222695558828326
0.7805545560586772
0.8601655267225079
0.905588073396297
0.9355568484046966
0.9566200023217638
0.9781553551458171
0.999314017905624
1.0201030358577505
1.0370626862001058
1.0510095556081591
1.0615481585049726
1.069418172351934
1.0739653879930047
1.0764611736973861
1.0759715374059537
1.0735630596301162
1.070430369552247
1.0650548077833308
1.058957838351461
1.0511522915263782
1.0416883760209346
1.029894589290939
1.0191234528117135
0.5793881452065163
0.7259202622979438
0.8130748689743159
0.8689829912629816
0.9072603356287733
0.93670522447963
0.9649276985725492
0.9912936704542954
1.0155889770702777
1.0349199527359683
1.049445825229278
1.060803606758667
1.066865738760388
1.0706973145216299
1.0729207880462304
1.0712699391388414
1.068548322615092
1.0650437307692882
1.0607505563958188
1.055157324313162
1.046356057351472
1.0371181176018807
1.0261347478793743
1.0128812587463012
0.5483544085349853
0.6793821221773398
0.7679671105455085
0.8307433074037028
0.875259550968407
0.913805685884838
0.95010712511219
0.981643233504077
1.0069756973525432
1.0284885571970235
1.0435527442551227
1.0537902724384147
1.0603531546857008
1.063332929361023
1.0634340787179692
1.0633936476041104
1.061197294582894
1.0578956633683316
1.052506029924915
1.0477498110001395
1.041158779287809
1.0321753080999243
1.0201926682632494
1.0090792526377952
0.5233988235188426
0.6391411471448646
0.728700743711451
0.7948583805344179
0.8453678634663117
0.8913321890544266
0.9320521956012062
0.9686795020937483
0.9965503657086223
1.0199738973993786
1.0342790203104322
1.0444784341545683
1.0510866154721743
1.0537054937493746
1.054847394200608
1.0545378286471936
1.0532011776816583
1.050315185751862
1.0453395733812894
1.0398612611382376
1.0337741124521262
1.0250685998559244
1.0152229638262427
1.0034778740810888
0.5032101838437011
0.6075164609045336
0.6935874948184279
0.7629144341641776
0.8200948179700754
0.8718524831956693
0.9182717720315606
0.9575830739302473
0.9884291050636961
1.0093585158892604
1.0240286624666923
1.0330695613206595
1.0394452861258376
1.0425007358410667
1.0446934855571863
1.0453010791422284
1.0425662219631309
1.0412892983830557
1.0373411186589394
1.0321176362718574
1.0265405922764619
1.0186466192283135
1.0094186291662082
0.9991607839054306
0.4856076888849366
0.5822281895538934
0.6657624043623454
0.7364858711662554
0.7993357972461543
0.8579210149979107
0.9081283412299579
0.9495522097384316
0.9775285723801226
0.9978912056632435
1.0128342578538756
1.0218353054479525
1.0264673236332185
1.0316974842844744
1.0335629151876655
1.0349845416470014
1.0336165814453582
1.032701430662534
1.0300750302312693
1.0255612208905414
1.0194050346136874
1.0133126206837162
1.0036194004927426
0.995481233193295
0.4707691826212322
0.5614736384741879
0.6446735846592447
0.7167293679838049
0.7859690976874008
0.8502496021677269
0.9027416232185796
0.9423325824125777
0.9701774477277747
0.9892918903972951
1.0016037254136156
1.0107684152118672
1.0164120148897422
1.0220349933644075
1.0236959821602025
1.0254079168449954
1.0250970738014302
1.025008270128458
1.0222165181538465
1.019790958433365
1.0161120280214189
1.0089222618782494
0.9999434791771447
0.9919242498473064
0.4624826411398293
0.54868796473987
0.6297432227503839
0.7046313365994573
0.7811391132772106
0.8483827995727182
0.9006104047898371
0.9380223138101579
0.9637772090047673
0.9814560681415286
0.9939990849302054
1.0015115163234454
1.0101639053291585
1.0143932982931474
1.015996726997213
1.0177347466962046
1.0186318515895245
1.0175816570199252
1.0168567437804281
1.015376631950706
1.0118078436098417
1.0069282213260549
0.998766660485601
0.9915675282555809
0.45920890170975315
0.5429805468913373
0.6241733217031499
0.7049328783287122
0.7836993832912054
0.8516680766088863
0.9014032458116777
0.936330130722983
0.9589893355709793
0.975819837388076
0.9872906893669813
0.996146428235646
1.0029781009362189
1.0082899113285893
1.011015525870083
1.0135543347624902
1.0139332504003418
1.015347530231886
1.014584082318626
1.0121500483206876
1.0100049020054804
1.0071577773004867
1.0004967141145842
0.9929859874475521
0.4590589215276173
0.5435519646769911
0.6261480802955005
0.7136794497096057
0.7957797996523155
0.8601977444093881
0.9060586407105541
0.9355046483660959
0.957080126050946
0.9726821128363634
0.983764503724713
0.9921421239540515
0.9999747417884599
1.0049403874442604
1.0091266828976715
1.0115875741606946
1.0126193769858283
1.0133189837996408
1.0137059844123144
1.0134564865570515
1.0118692886493137
1.0099239830017954
1.004132361676767
0.9979650426984502
0.4614140878746083
0.5471876631892404
0.6353065561413208
0.7304164236944636
0.8108930632132737
0.8703541144994476
0.9112370265768016
0.9379363264422453
0.9573487530165962
0.9725006619265034
0.984199708717672
0.9918034520813449
0.9990248780796085
1.0037198715833595
1.0088147553506854
1.011676380562327
1.013527831980251
1.0145200955473743
1.0148198597942208
1.0169187792175463
1.0156261983915997
1.0149960144864554
1.009619430038752
1.0035951500820892
0.468380399683318
0.5548262754553858
0.6516925328062999
0.7505093048936657
0.8287809745763238
0.881251574212922
0.9172931198400329
0.9433915108250531
0.9605749686371412
0.9737179073106258
0.9848041314551588
0.9933042215030159
1.0011893522054456
1.0067596926571878
1.0107683517567723
1.012792825614067
1.0165198329640623
1.0206961717625846
1.021917201395215
1.0240998142858437
1.0238824120822128
1.0210100185355704
1.0152669973690944
1.0093954416090096
0.47829509559413036
0.56902251764664
0.6743824939927557
0.7744216439596321
0.8462408070006292
0.8921875468413365
0.9233234723084214
0.9464049667742155
0.9629821994555486
0.9770481575429696
0.989537665357745
0.9973797491664832
1.004999366167256
1.0095253570337486
1.0153950930760942
1.0210481414556953
1.0234857256485617
1.0270292207547909
1.0297369751837975
1.0316449200804085
1.0311381093115963
1.0295083134600658
1.0234734231291112
1.016075944295049
0.48936163977920855
0.5895219983101594
0.7041377786444089
0.8001230653415444
0.8616512348519241
0.9020852552281569
0.9301287664338812
0.951562416845041
0.9687750346329023
0.9818083840679807
0.9916878864165192
1.0023864695562603
1.0100843883211201
1.016138492852314
1.022250520794808
1.0270907345014066
1.0328909682638292
1.0367143381105308
1.0391713929395292
1.0409030619420594
1.040922203045267
1.0381248603554574
1.0307110168201397
1.0225607118730602
0.502272014473518
0.6181906930103042
0.7396224029114878
0.8248018575304835
0.8769270037013033
0.9111775441985579
0.9364312464103135
0.9555595210810438
0.9722051104697078
0.9872571392415073
0.9987665863046759
1.007388133527679
1.0159995722256763
1.024091060910641
1.0316618353450464
1.0368369520849585
1.0415294640449877
1.0457387936383695
1.049265036316279
1.0490061033368883
1.0491998228948491
1.0455610452500539
1.0367876408475425
1.0294435049992026
0.517946120696209
0.6539035269210871
0.7766934916314513
0.8495840861876265
0.8933356409964716
0.9220210889019348
0.9439691462291117
0.9628353512075296
0.9787630727843175
0.9913716526595864
1.0038183831784255
1.0135230897620828
1.023047233728776
1.032709630996143
1.0403732174754026
1.0471271846242793
1.0531159956241263
1.0562630759088134
1.0582113919481395
1.0591263070733759
1.0564248522724027
1.0517976683754056
1.0423365872181252
1.0343201642772346
0.5377260024291989
0.6976355750551441
0.8119076753940767
0.873308879019861
0.908488807683614
0.9328530339208445
0.9524564474127758
0.9693126104212603
0.9845666586764582
0.9992594764226768
1.010756464075786
1.0220128092999423
1.0326632093667625
1.0424686699257908
1.0506080406788147
1.0567774901506524
1.0626878035885599
1.0657850332189505
1.06759564853599
1.0663358318763356
1.0636300257900502
1.0564357959897215
1.0476374721305595
1.037116057788489
0.5635268948351451
0.7467646502425582
0.8452033435550443
0.8936223026629155
0.923236042665937
0.9453623651689171
0.962064336925323
0.9788065678601535
0.9923184432000177
1.0065647407844918
1.0183517486272562
1.0316326239989755
1.042472773505468
1.0520536194678927
1.0605651598214976
1.0674838700992462
1.0721790891448015
1.0739110194199883
1.0746404035202208
1.071645515284001
1.0678512662400304
1.0604097114893396
1.0506155880624988
1.0380479548510844
0.6020107704044879
0.7965239202452331
0.8749117277144046
0.9133565940117573
0.9376326066362737
0.95745943056568
0.9733491038857381
0.9884897883000465
1.0017700032245258
1.0141158640281493
1.0285140454020543
1.041830454369456
1.0530147789916677
1.0628961950818119
1.0696649749002973
1.0755284611227018
1.0795863953961242
1.08089601014119
1.0802801943210725
1.0772647396818908
1.0715367982844912
1.062620616246994
1.0509528839583018
1.0385306340153768
0.6586063385366892
0.8399760282506892
0.9010998225126751
0.9308749696287474
0.9536116331477259
0.969073384771505
0.9857589068735753
0.9992933272189262
1.0133925800922554
1.026107606764419
1.038561630082688
1.0517563028474644
1.0631477853702656
1.0725046690921014
1.079346844791411
1.0848743259198075
1.0861131263970178
1.0863594222719841
1.083457517369869
1.079981256121593
1.0729212001247843
1.0642313218332278
1.050542549549553
1.0371681937340338
0.7375215138226965
0.8750952402183623
0.9204735059663224
0.9467353486638302
0.966428944261411
0.981531885378718
0.9978361631602617
1.0118593228799109
1.0243673656012378
1.0387783491791878
1.0527141727316713
1.063471931935854
1.0725561668500379
1.0814321167774898
1.0873761751098836
1.0907283140956958
1.092263315748133
1.0894980682352982
1.0862728645235853
1.082069730643361
1.0728066061444472
1.0631355256927177
1.0492470554202444
1.0347994839114143
0.8256187884538176
0.8992579606275942
0.9347597569344677
0.9594473884755097
0.9789509075371517
0.9947484822619375
1.0093472840463171
1.0227106186458481
1.0358924697558767
1.0506713783683177
1.0642785671333415
1.0759832800245999
1.0834063703467935
1.089649920389785
1.0937710005323507
1.095497680157144
1.095829017945615
1.091711670190126
1.0880060399552611
1.0803638557697977
1.072011178876774
1.0607669291804733
1.047378211777169
1.0312953051814546
0.0798296706603729
0.1634783507278196
0.24962191501653772
0.29426180833794996
0.36358085511899324
0.4521018182248076
0.11426646319568404
0.1970387170579852
0.27179037869738
0.31171463571082564
0.3716917243548589
0.4332478978492069
0.13119226635249243
0.20744815862005153
0.27351274035203155
0.31257253609180974
0.3737233321428596
0.4450358940398403
0.14574436506905486
0.2140875441457947
0.2718510447460556
0.3109536037148633
0.37622384462719
0.45662479357266034
0.16075936029036672
0.21915055956218985
0.269652213153714
0.30945960742332357
0.37764665719722895
0.46349711492797085
0.17449480213438767
0.22351364865686052
0.26637780693218
0.30726763231527077
0.37697140947063656
0.46363847901354466
0.18728551415894884
0.22612281476315294
0.2634875692792186
0.30534895592675515
0.37492173971787596
0.4611737726423189
0.19796088398844772
0.2278863372160536
0.2612076936531041
0.30355806981480504
0.37175809260788767
0.45681445543971133
0.2065217191403822
0.22905291493561422
0.2589223944936456
0.3015549918453165
0.3686573394005095
0.44982988087042974
0.21350466159071346
0.23021975172016665
0.25701824974003834
0.299322814695951
0.3656960692665593
0.4452555019684492
0.21864231038004833
0.23104657022409528
0.2570913995634542
0.2982788705414489
0.3633153773745978
0.44234029929350566
0.2211882238177491
0.2317010737405129
0.25814157753313544
0.29917241780317916
0.3630525395941287
0.441182225672966
0.22124239235859472
0.23285938389339655
0.26025015069224305
0.30220697009891284
0.3657020761203269
0.44322934117188656
0.219102301890365
0.23312444181939296
0.26258462716788555
0.30628005561645594
0.37126149732319386
0.4480903251951981
0.2144090484355254
0.23267651419615784
0.26505770942772433
0.31079346918377543
0.3765913921141902
0.4541273270335373
0.20769128757198874
0.2325208208673513
0.26830429365500535
0.3153607652549813
0.3821204385199444
0.4598677083678366
0.19906016799063975
0.23179061185244904
0.2714830543688053
0.3188501538219445
0.38611330271619154
0.4657532226818499
0.188502434339345
0.23000507834351058
0.2734543314980523