/*--------------------------------*- C++ -*----------------------------------*\
  =========                 |
  \\      /  F ield         | OpenFOAM: The Open Source CFD Toolbox
   \\    /   O peration     | Website:  https://openfoam.org
    \\  /    A nd           | Version:  11
     \\/     M anipulation  |
\*---------------------------------------------------------------------------*/
FoamFile
{
    format      ascii;
    class       volScalarField;
    location    "0.48";
    object      k;
}
// * * * * * * * * * * * * * * * * * * * * * * * * * * * * * * * * * * * * * //

dimensions      [0 2 -2 0 0 0 0];

internalField   nonuniform List<scalar> 
2880
(
0.00354972
0.00970597
0.0316902
0.0621659
0.0907079
0.115197
0.0146933
0.0231985
0.0483794
0.0768503
0.101988
0.123875
0.019398
0.0346573
0.0600387
0.0852391
0.107187
0.125088
0.0219576
0.0422551
0.0668435
0.0895053
0.108815
0.123977
0.0238001
0.0474679
0.0709507
0.0916173
0.10885
0.12212
0.0249925
0.0511705
0.0733854
0.0924301
0.108042
0.119912
0.0261016
0.0537443
0.0746967
0.0923745
0.106668
0.117466
0.0272821
0.0553726
0.075201
0.0916723
0.104847
0.114745
0.0281195
0.0562813
0.0751083
0.0904652
0.102638
0.111726
0.0286517
0.0566007
0.0745181
0.0888428
0.100083
0.108411
0.0288848
0.0564529
0.0735274
0.0868707
0.0972242
0.104831
0.0288574
0.0558383
0.0721889
0.0845979
0.0941017
0.10105
0.0285794
0.0547964
0.0705334
0.0820593
0.0907565
0.0971443
0.028157
0.0533212
0.0685712
0.0792768
0.0872237
0.093199
0.0275607
0.0514155
0.0662958
0.0762583
0.0835301
0.0892947
0.0267597
0.0490469
0.0636892
0.0730012
0.0796923
0.0855002
0.0256744
0.0461887
0.0607372
0.069499
0.0757133
0.0818715
0.0249398
0.0430245
0.0574613
0.0657472
0.0715769
0.0785113
0.0244054
0.0398975
0.0539149
0.0617349
0.0672345
0.0754442
0.0235573
0.0369555
0.0500937
0.0574135
0.0625942
0.072297
0.022213
0.0338779
0.0457915
0.0526148
0.057507
0.0685034
0.0203571
0.0301309
0.0404341
0.046878
0.0514487
0.0633832
0.0166223
0.0242148
0.0323365
0.0388036
0.0423787
0.0567297
0.0045718
0.00908732
0.0143982
0.0208937
0.0245646
0.0327741
0.139068
0.146074
0.153866
0.16341
0.172826
0.180499
0.185452
0.187754
0.188064
0.186412
0.18325
0.179055
0.17425
0.169197
0.164201
0.159515
0.155331
0.151782
0.148924
0.146758
0.145315
0.144533
0.144268
0.144385
0.137265
0.141844
0.148684
0.157942
0.167221
0.17465
0.179184
0.181059
0.180955
0.178956
0.175618
0.171441
0.166852
0.162208
0.157796
0.153837
0.150498
0.147881
0.146025
0.144912
0.144422
0.14433
0.144447
0.144745
0.135244
0.139036
0.145796
0.155458
0.165212
0.173019
0.177873
0.179929
0.179941
0.178026
0.174758
0.170652
0.166144
0.161587
0.157261
0.153373
0.150066
0.147417
0.145444
0.144094
0.143246
0.14273
0.142386
0.142173
0.13301
0.137029
0.144309
0.154734
0.165462
0.174457
0.180621
0.183769
0.18464
0.183551
0.180965
0.177405
0.173287
0.168951
0.16466
0.160606
0.156916
0.153661
0.150865
0.148517
0.146583
0.145034
0.143858
0.143033
0.130725
0.135364
0.143485
0.155087
0.16741
0.178101
0.186053
0.190995
0.193287
0.193585
0.192244
0.189779
0.186543
0.182861
0.178968
0.175038
0.171189
0.167495
0.164003
0.160749
0.157787
0.155219
0.15317
0.151634
0.128299
0.133673
0.142732
0.155656
0.169599
0.181943
0.191411
0.19779
0.201448
0.202944
0.202785
0.201532
0.199387
0.196636
0.193516
0.190179
0.186719
0.183198
0.179654
0.176129
0.172692
0.169487
0.166689
0.164251
0.1256
0.131645
0.141494
0.155387
0.170182
0.183137
0.19306
0.199843
0.203927
0.205859
0.20615
0.205383
0.203756
0.201415
0.198662
0.19563
0.192401
0.189021
0.185517
0.181913
0.178262
0.174699
0.171444
0.168241
0.122561
0.129057
0.139364
0.153691
0.168535
0.180917
0.189915
0.19587
0.199335
0.200852
0.200915
0.200072
0.19852
0.19626
0.193602
0.190677
0.18753
0.184185
0.180649
0.176913
0.172997
0.168943
0.165119
0.160647
0.119142
0.12582
0.136208
0.150238
0.163426
0.172676
0.178029
0.180553
0.181122
0.180376
0.178943
0.176858
0.17429
0.171417
0.168314
0.165016
0.161529
0.15785
0.153951
0.149767
0.14532
0.140409
0.135897
0.129522
0.115367
0.122054
0.132368
0.145569
0.155122
0.15844
0.157086
0.154001
0.150166
0.146177
0.142128
0.138087
0.134083
0.130109
0.126129
0.122068
0.11788
0.113527
0.108919
0.103953
0.0988021
0.0930532
0.0881411
0.0806334
0.111336
0.118138
0.12902
0.14106
0.14536
0.141032
0.1321
0.123494
0.115751
0.108938
0.102778
0.0971276
0.0918882
0.086948
0.0821875
0.0775525
0.0730106
0.06854
0.0642512
0.0602296
0.0565444
0.0530663
0.0503363
0.0472834
0.107227
0.11469
0.127594
0.138414
0.136517
0.124724
0.111102
0.100829
0.0929486
0.08586
0.079227
0.0730625
0.0674142
0.0622948
0.0577022
0.0536115
0.0499752
0.0467549
0.0439344
0.0415042
0.0394706
0.0378407
0.0368033
0.0360777
0.103268
0.112563
0.128999
0.13705
0.129645
0.111651
0.0989599
0.090415
0.0829831
0.075848
0.0689871
0.0625915
0.056814
0.0517269
0.0473433
0.0436105
0.040457
0.0378266
0.0356779
0.0339897
0.0327682
0.0320622
0.0319111
0.0322331
0.0997182
0.112756
0.133715
0.135747
0.121366
0.103487
0.0934054
0.0855271
0.0779851
0.0705099
0.0633845
0.0569045
0.0512075
0.0463178
0.0421826
0.0387304
0.0358842
0.033586
0.0317968
0.0305073
0.0297374
0.0295443
0.0298319
0.0308564
0.0969216
0.116374
0.138521
0.133851
0.11311
0.0991356
0.0903628
0.082058
0.0736607
0.0655236
0.0580677
0.0515566
0.0460353
0.0414358
0.0376525
0.0345803
0.0321307
0.0302425
0.0288951
0.0280984
0.0278635
0.0280729
0.028793
0.0303308
0.095332
0.12358
0.140056
0.128324
0.107883
0.0971812
0.0880106
0.0784134
0.0690799
0.0604718
0.052963
0.046651
0.0414464
0.0372083
0.0337982
0.0311005
0.0290337
0.0275498
0.0266337
0.0262928
0.0264309
0.0270082
0.0282214
0.0300234
0.0952958
0.132159
0.137801
0.120663
0.10611
0.0959075
0.0851384
0.0743829
0.064456
0.0557915
0.0485544
0.0426375
0.0378579
0.0340349
0.0310155
0.0286841
0.0269632
0.0258111
0.0252125
0.025161
0.025505
0.0263852
0.0278173
0.0296878
0.0970648
0.136233
0.132515
0.117252
0.105535
0.0938329
0.0814217
0.0698208
0.0597345
0.0513886
0.0446154
0.0391781
0.0348479
0.0314291
0.0287677
0.0267519
0.0253111
0.0244107
0.0240399
0.024144
0.0246702
0.0257258
0.0272317
0.0290697
0.10024
0.136355
0.127436
0.116617
0.104654
0.0905599
0.0768418
0.0649498
0.0552209
0.0473951
0.0411528
0.0362028
0.0322982
0.0292412
0.0268828
0.0251197
0.023889
0.0231604
0.0229244
0.0231118
0.0237353
0.0248232
0.0263152
0.0280714
0.100251
0.132897
0.125792
0.117426
0.102422
0.0860001
0.0716926
0.0601652
0.0510204
0.0437947
0.0380974
0.0336141
0.0300957
0.0273513
0.025241
0.0236706
0.0225837
0.0219538
0.021773
0.0219832
0.0226097
0.0236539
0.0250712
0.026718
0.0962116
0.131064
0.12755
0.118021
0.098338
0.0804924
0.0664511
0.0555777
0.0471253
0.0405233
0.0353523
0.0312966
0.0281165
0.0256332
0.023718
0.0222853
0.0212845
0.0206926
0.0205047
0.020684
0.0212422
0.022187
0.0234885
0.0250144
0.105372
0.134201
0.132897
0.116218
0.0922674
0.0744517
0.0612531
0.0512543
0.043549
0.0375545
0.0328657
0.0291855
0.0262918
0.0240207
0.0222549
0.0209154
0.0199556
0.0193546
0.0191097
0.0192091
0.0196421
0.0204411
0.0215946
0.0229943
0.1261
0.146408
0.135988
0.108153
0.084793
0.0683463
0.0563294
0.0472574
0.0402752
0.0348416
0.0305828
0.0272272
0.0245737
0.022474
0.0208209
0.0195412
0.0185901
0.0179466
0.0176086
0.0175837
0.0178495
0.0184564
0.0194305
0.020698
0.148305
0.158809
0.133338
0.0992568
0.0773985
0.0625381
0.0517382
0.0435744
0.0372719
0.0323464
0.0284655
0.0253881
0.0229355
0.0209745
0.0194074
0.018165
0.0172026
0.0164969
0.0160429
0.0158485
0.0159198
0.0162819
0.0170287
0.0181471
0.00573457
0.0265694
0.0617173
0.0993553
0.144845
0.153331
0.0196325
0.0554566
0.0962774
0.137486
0.177645
0.217535
0.0249146
0.0696305
0.111926
0.152272
0.184984
0.202367
0.0278258
0.0783635
0.119329
0.155143
0.175182
0.174418
0.0316625
0.0837768
0.122009
0.151404
0.158715
0.149802
0.0343946
0.087055
0.122079
0.144195
0.143145
0.129404
0.036241
0.0888257
0.120505
0.136214
0.130889
0.1147
0.0374228
0.0894624
0.118052
0.129097
0.121575
0.105016
0.0380954
0.0891935
0.115214
0.12337
0.114816
0.0986459
0.0383573
0.0881646
0.112285
0.119026
0.110208
0.0943112
0.0382683
0.0864733
0.109427
0.115833
0.107236
0.0913738
0.037847
0.0841914
0.106712
0.11351
0.105513
0.0894814
0.037097
0.0813277
0.104136
0.111899
0.104709
0.0884298
0.0360214
0.077891
0.101609
0.110823
0.104638
0.0881213
0.0346343
0.0738872
0.0989739
0.110079
0.105131
0.0884853
0.0329415
0.0693258
0.0960025
0.109471
0.106092
0.0895124
0.0309567
0.0642173
0.0923853
0.108776
0.107339
0.0911684
0.0286136
0.0585479
0.087759
0.10773
0.108627
0.0934072
0.0258029
0.05229
0.0816565
0.105894
0.109456
0.0961364
0.0245835
0.0454959
0.073748
0.102416
0.109752
0.0991511
0.0231311
0.0385025
0.0637425
0.0960445
0.108703
0.101363
0.0211219
0.0310395
0.05152
0.0846365
0.104638
0.10207
0.01723
0.02196
0.0359619
0.0643665
0.0937789
0.0966641
0.00465696
0.00700718
0.0135607
0.0316732
0.0723703
0.0900234
0.187811
0.164795
0.118991
0.0891794
0.0701464
0.0570947
0.0475159
0.0402107
0.0345253
0.0300481
0.0264938
0.023653
0.0213683
0.0195207
0.0180208
0.0168027
0.0158204
0.0150453
0.0144654
0.0140823
0.013908
0.0139781
0.0144089
0.0153319
0.203213
0.148625
0.105205
0.0794733
0.0633347
0.052104
0.0436888
0.0371619
0.0320192
0.0279304
0.0246567
0.0220178
0.0198754
0.0181233
0.0166793
0.0154805
0.0144793
0.0136409
0.0129423
0.0123709
0.0119241
0.0116302
0.0116328
0.0122261
0.175777
0.124118
0.0910681
0.0708721
0.0574966
0.0477762
0.0403057
0.0344228
0.0297384
0.0259816
0.0229495
0.0204854
0.0184673
0.0167996
0.0154072
0.0142304
0.0132211
0.0123396
0.0115524
0.0108289
0.0101398
0.00947254
0.00890005
0.00879632
0.145978
0.106006
0.0802645
0.0638519
0.0524854
0.0439614
0.0372803
0.0319483
0.0276594
0.0241907
0.0213698
0.0190605
0.017155
0.0155676
0.0142296
0.0130855
0.0120892
0.0112008
0.0103835
0.00959901
0.00880105
0.00793858
0.00697835
0.00561511
0.121195
0.0914793
0.0715172
0.0579996
0.0481916
0.0406251
0.0345935
0.0297238
0.0257714
0.0225512
0.0199153
0.017745
0.0159444
0.0144367
0.0131598
0.012063
0.0111045
0.0102488
0.00946415
0.00871817
0.00797209
0.00718492
0.00633015
0.00519481
0.104414
0.0811173
0.0647375
0.0531631
0.0445122
0.0377064
0.0322086
0.027726
0.0240597
0.0210537
0.0185804
0.0165353
0.0148327
0.0134033
0.0121909
0.0111496
0.0102418
0.00943571
0.00870373
0.00801735
0.00734108
0.00664002
0.00590522
0.00499013
0.0932419
0.0734839
0.0593281
0.0491277
0.0413594
0.0351588
0.0300965
0.0259357
0.0225109
0.019689
0.0173581
0.0154249
0.0138124
0.0124574
0.0113086
0.0103237
0.00946834
0.0087137
0.00803479
0.00740587
0.00679481
0.0061737
0.00554521
0.004806
0.0855031
0.0676917
0.0549695
0.0457525
0.038658
0.0329379
0.0282296
0.0243347
0.0211129
0.0184481
0.0162409
0.0144072
0.0128763
0.0115904
0.0105016
0.00957096
0.00876647
0.00806162
0.00743363
0.00685922
0.00630993
0.00576423
0.00523127
0.00463535
0.0799291
0.0631937
0.0514281
0.042927
0.0363484
0.0310076
0.0265843
0.0229073
0.0198546
0.017323
0.0152227
0.0134764
0.0120189
0.0107961
0.00976328
0.00888401
0.00812828
0.0074715
0.00689279
0.00637109
0.00588133
0.00540697
0.00495946
0.00448188
0.0757921
0.0596617
0.0485473
0.040569
0.0343822
0.0293369
0.0251401
0.0216395
0.0187262
0.0163066
0.0142979
0.0126281
0.0112361
0.0100707
0.00909003
0.0082594
0.00755059
0.00694058
0.00641001
0.00593959
0.00550698
0.00509903
0.00472671
0.00434667
0.0727026
0.0568917
0.0462187
0.0386158
0.0327196
0.0278995
0.0238793
0.020519
0.0177191
0.0153926
0.0134618
0.0118585
0.0105247
0.00941173
0.0084795
0.0076951
0.00703166
0.00646734
0.00598383
0.00556303
0.00518459
0.00483728
0.00452999
0.00422962
0.0704367
0.0547579
0.0443655
0.0370177
0.0313275
0.0266731
0.0227864
0.0195352
0.0168258
0.0145755
0.0127102
0.0111643
0.00988204
0.00881669
0.00792965
0.00718929
0.00656976
0.00605
0.00561221
0.00523888
0.00491089
0.00461787
0.00436584
0.00412981
0.0688652
0.0531754
0.0429291
0.0357349
0.0301787
0.0256389
0.0218485
0.0186789
0.0160394
0.0138502
0.012039
0.0105422
0.00930538
0.00828321
0.00743823
0.00673975
0.00616258
0.00568596
0.00529209
0.00496348
0.00468163
0.00443624
0.00423049
0.00404588
0.0679095
0.0520858
0.0418657
0.0347364
0.0292516
0.0247817
0.0210549
0.0179423
0.0153542
0.0132121
0.0114446
0.00998903
0.00879188
0.00780864
0.00700265
0.0063438
0.00580718
0.00537187
0.00501957
0.00473234
0.00449189
0.00428761
0.00412014
0.00397632
0.0675241
0.0514518
0.0411453
0.0339999
0.0285298
0.0240897
0.0203968
0.0173186
0.0147649
0.0126569
0.0109234
0.00950164
0.00833858
0.00739009
0.00661995
0.00599827
0.00550002
0.00510371
0.00479009
0.00454047
0.00433654
0.00416725
0.00403124
0.00391957
0.0676897
0.0512543
0.04075
0.0335107
0.0280017
0.0235541
0.0198674
0.0168026
0.0142671
0.0121809
0.0104719
0.00907682
0.00794238
0.00702445
0.00628686
0.00569962
0.00523718
0.00487706
0.00459877
0.00438272
0.00421055
0.00407079
0.00396055
0.00387414
0.068408
0.0514924
0.040674
0.0332607
0.0276601
0.0231686
0.0194616
0.0163898
0.0138569
0.0117805
0.0100868
0.00871145
0.00760017
0.00670849
0.00599995
0.0054441
0.0050145
0.00468734
0.00444072
0.00425416
0.00410927
0.00399431
0.00390523
0.00383856
0.0697081
0.0521834
0.040923
0.0332485
0.0275014
0.0229295
0.0191755
0.0160768
0.0135311
0.0114528
0.00976542
0.00840259
0.00730888
0.00643897
0.00575573
0.00522791
0.00482781
0.00453008
0.0043113
0.0041502
0.00402851
0.00393438
0.00386278
0.00381149
0.0716481
0.0533728
0.0415137
0.0334805
0.0275196
0.0228342
0.0190066
0.015861
0.0132873
0.0111953
0.00950504
0.00814757
0.00706566
0.00621275
0.00555075
0.00504725
0.00467306
0.00440104
0.00420626
0.00406675
0.00396455
0.0038879
0.00383094
0.00379163
0.0743224
0.0551225
0.042479
0.0339682
0.0277297
0.0228738
0.0189531
0.0157405
0.0131235
0.0110061
0.00930368
0.00794419
0.00686803
0.00602701
0.00538177
0.00489853
0.00454638
0.00429627
0.00412176
0.00400024
0.00391406
0.00385179
0.00380738
0.00377741
0.0778664
0.0575173
0.0438531
0.0347274
0.0281305
0.0230662
0.0190052
0.0157139
0.0130384
0.0108838
0.00915994
0.00779088
0.00671415
0.00587954
0.00524614
0.00477866
0.00444437
0.0042123
0.00405452
0.00394782
0.00387469
0.00382397
0.00378966
0.00376708
0.0824544
0.0606653
0.0456703
0.0357685
0.0287273
0.0234021
0.0191781
0.0157719
0.013031
0.0108277
0.00907308
0.00768682
0.006603
0.00576898
0.00514212
0.0046855
0.00436459
0.00414658
0.00400211
0.00390733
0.00384477
0.00380323
0.00377651
0.00375993
0.0882597
0.0646698
0.0479418
0.0370894
0.0295161
0.0238815
0.019463
0.0159259
0.0130922
0.0108358
0.00904293
0.00763185
0.00653428
0.00569477
0.00506882
0.0046178
0.00430549
0.00409734
0.00396265
0.00387691
0.00382254
0.00378823
0.0037674
0.00375546
0.0952896
0.0695035
0.0506099
0.0386589
0.0304812
0.0244973
0.0198586
0.0161739
0.0132353
0.0109033
0.00906629
0.00762631
0.00650829
0.00565684
0.00502588
0.00457481
0.00426597
0.0040633
0.00393478
0.00385519
0.00380667
0.00377773
0.00376136
0.00375284
0.00505402
0.0223719
0.0538819
0.080121
0.0945777
0.100901
0.0169489
0.044036
0.0736453
0.095458
0.107043
0.11172
0.0253682
0.0623299
0.0892191
0.106498
0.114308
0.116548
0.0317866
0.0748633
0.0999374
0.114061
0.11942
0.119902
0.037325
0.0839203
0.107835
0.120026
0.124031
0.12305
0.0420441
0.0906938
0.114011
0.125266
0.1286
0.126435
0.045901
0.095862
0.119113
0.130189
0.133309
0.130305
0.0489483
0.0998447
0.123483
0.134989
0.138287
0.134823
0.0512638
0.102907
0.1273
0.139756
0.143625
0.140105
0.052923
0.105215
0.130653
0.144516
0.149386
0.146248
0.0539864
0.106854
0.133576
0.149243
0.155611
0.153325
0.0544969
0.107818
0.136079
0.153876
0.162299
0.161392
0.0545518
0.108039
0.138117
0.158305
0.169396
0.170466
0.0543745
0.107413
0.139573
0.162416
0.176719
0.180523
0.053875
0.105889
0.140252
0.166003
0.184029
0.19143
0.0529655
0.103365
0.139965
0.168719
0.190976
0.202946
0.0515489
0.0996968
0.138299
0.1701
0.197023
0.214675
0.0495067
0.0947313
0.134959
0.169675
0.201408
0.225913
0.0466784
0.0883296
0.129594
0.166765
0.203065
0.235714
0.0428549
0.0803865
0.121899
0.160614
0.201069
0.242758
0.0377964
0.0708567
0.111569
0.150458
0.193274
0.245055
0.0312748
0.0595679
0.098012
0.135077
0.177024
0.240639
0.0226026
0.0451747
0.079157
0.111987
0.148369
0.219929
0.00702434
0.0180456
0.0413396
0.068749
0.102977
0.131061
0.102442
0.0746308
0.053494
0.0404044
0.0315936
0.0252373
0.02036
0.0165125
0.0134594
0.0110453
0.0091472
0.00766599
0.00652322
0.00565542
0.00501349
0.00455629
0.00424541
0.00404361
0.00391757
0.00384121
0.00379622
0.00377078
0.00375764
0.00375144
0.106674
0.0785867
0.056252
0.042223
0.0328183
0.0260882
0.0209621
0.0169405
0.0137622
0.0112572
0.00929324
0.00776367
0.00658433
0.00569022
0.00503034
0.00456176
0.00424383
0.00403813
0.00391068
0.00383451
0.00379061
0.00376701
0.00375565
0.00375086
0.108787
0.0814104
0.0587633
0.0440576
0.0341326
0.0270415
0.0216626
0.0174585
0.0141457
0.0115408
0.00950203
0.00791627
0.00669444
0.00576781
0.00508275
0.00459467
0.00426264
0.00404766
0.00391465
0.00383552
0.00379035
0.00376652
0.00375527
0.00375074
0.110213
0.0836684
0.0611157
0.0459204
0.0355373
0.0280984
0.0224641
0.0180699
0.014614
0.0119
0.00977776
0.00812747
0.00685514
0.00588826
0.00517061
0.0046562
0.00430368
0.00407371
0.00393048
0.00384479
0.00379551
0.00376911
0.00375644
0.00375108
0.111824
0.0858878
0.0634745
0.0478669
0.0370528
0.0292692
0.023374
0.0187813
0.0151729
0.0123406
0.0101256
0.00840196
0.00707084
0.00605584
0.00529803
0.00474998
0.00436998
0.00411876
0.00396013
0.00386383
0.00380733
0.00377564
0.00375968
0.00375222
0.114001
0.0884155
0.066005
0.0499692
0.0387129
0.0305721
0.024404
0.0196017
0.0158302
0.0128692
0.0105517
0.00874546
0.00734685
0.00627557
0.00546979
0.00488048
0.00446562
0.00418629
0.00400633
0.00389456
0.00382697
0.00378729
0.00376569
0.0037549
0.116961
0.0914743
0.0688532
0.0523051
0.0405593
0.0320311
0.0255699
0.0205427
0.0165953
0.0134941
0.0110632
0.00916452
0.00768927
0.00655321
0.00569145
0.0050531
0.0045957
0.00428088
0.0040729
0.00394001
0.00385676
0.00380558
0.00377595
0.00375982
0.120848
0.095234
0.0721546
0.0549573
0.0426405
0.0336754
0.0268905
0.021618
0.0174789
0.0142242
0.0116683
0.00966648
0.00810493
0.00689525
0.0059693
0.00527401
0.00476622
0.00440811
0.00416473
0.00400422
0.00389991
0.0038329
0.00379185
0.00376792
0.125777
0.099847
0.0760434
0.0580153
0.0450118
0.0355393
0.0283883
0.0228434
0.0184933
0.0150697
0.0123759
0.0102594
0.00860132
0.00730879
0.0063102
0.00555001
0.00498397
0.00457459
0.00428789
0.00409242
0.00396057
0.00387215
0.00381491
0.00378001
0.131864
0.105473
0.0806647
0.0615803
0.0477373
0.037663
0.0300892
0.0242368
0.0196518
0.0160417
0.0131954
0.0109521
0.00918667
0.00780172
0.00672187
0.00588881
0.00525674
0.00478807
0.00444976
0.00421103
0.00404377
0.00392673
0.0038474
0.00379723
0.139232
0.112287
0.086186
0.0657724
0.0508943
0.0400943
0.0320235
0.0258184
0.0209694
0.0171519
0.0141373
0.011754
0.00987002
0.00838281
0.00721298
0.00629912
0.00559339
0.00505751
0.00465896
0.00436774
0.00415566
0.00400133
0.00389314
0.00382175
0.14801
0.120488
0.0928059
0.0707391
0.0545782
0.0428919
0.0342273
0.0276118
0.0224625
0.0184133
0.0152124
0.0126752
0.010661
0.00906153
0.00779296
0.00679039
0.00600347
0.00539257
0.0049251
0.00457162
0.00430431
0.0041025
0.00395643
0.00385573
0.158325
0.130295
0.100757
0.0766605
0.058908
0.0461284
0.0367444
0.0296442
0.0241496
0.0198395
0.0164324
0.013726
0.0115695
0.00984767
0.00847154
0.00737235
0.00649676
0.0058032
0.0052583
0.00483275
0.00449906
0.00423784
0.00404235
0.00390135
0.170286
0.141943
0.110308
0.0837564
0.0640325
0.049895
0.039629
0.0319486
0.0260518
0.0214457
0.0178088
0.0149168
0.0126054
0.0107509
0.00925835
0.00805468
0.00708306
0.00629943
0.00566896
0.00516173
0.0047501
0.00441605
0.00415694
0.00396126
0.183942
0.155666
0.121751
0.0922889
0.0701367
0.0543077
0.0429495
0.0345652
0.0281939
0.0232482
0.019354
0.0162577
0.0137779
0.0117802
0.0101625
0.0088467
0.00777191
0.00689111
0.00616733
0.00556921
0.00506806
0.00464668
0.00430726
0.00403854
0.199207
0.171678
0.135376
0.102552
0.0774446
0.059512
0.0467927
0.0375445
0.0306058
0.0252657
0.0210808
0.0177586
0.0150956
0.0129438
0.0111924
0.00975696
0.00857221
0.00758754
0.00676318
0.00606542
0.00546343
0.00493966
0.00450108
0.00413666
0.215774
0.190123
0.151412
0.114842
0.0862128
0.0656861
0.0512679
0.04095
0.0333245
0.0275205
0.0230033
0.0194295
0.0165665
0.0142488
0.012355
0.0107929
0.0094919
0.00839719
0.0074655
0.00665989
0.0059461
0.00530468
0.00474634
0.00425914
0.233455
0.210617
0.169908
0.1294
0.0967109
0.0730382
0.0565106
0.0448626
0.0363969
0.0300402
0.0251383
0.0212812
0.0181982
0.0157017
0.0136562
0.0119605
0.0105376
0.00932731
0.00828224
0.00736121
0.00652519
0.00575084
0.00505067
0.00440912
0.251601
0.23244
0.190685
0.146324
0.109178
0.0817939
0.0626825
0.0493837
0.0398832
0.0328598
0.0275067
0.0233264
0.019999
0.0173082
0.0151009
0.0132647
0.0117144
0.0103838
0.00922009
0.00817692
0.00720897
0.00628662
0.00542107
0.00458863
0.2691
0.254301
0.213267
0.165456
0.12374
0.092164
0.0699628
0.0546353
0.0438586
0.0360245
0.0301353
0.0255815
0.0219792
0.0190753
0.0166943
0.0147097
0.0130265
0.0115712
0.0102846
0.00911363
0.00800519
0.00692031
0.00586432
0.00479809
0.284317
0.274504
0.236411
0.186182
0.140278
0.104278
0.0785245
0.0607553
0.0484155
0.0395921
0.0330599
0.0280688
0.0241532
0.0210125
0.0184432
0.0163009
0.0144787
0.0128943
0.0114808
0.0101776
0.00892162
0.00766103
0.00638812
0.00503626
0.294674
0.290544
0.258094
0.207289
0.158271
0.118076
0.0884877
0.0678816
0.0536599
0.0436343
0.0363272
0.0308189
0.0265417
0.0231348
0.020359
0.0180477
0.0160793
0.014361
0.0128168
0.0113773
0.00996832
0.00852093
0.00700377
0.00530087
0.292751
0.298969
0.275464
0.2271
0.176752
0.133199
0.0998452
0.0761223
0.0597025
0.0482351
0.0399959
0.0338729
0.0291745
0.0254654
0.0224614
0.0199681
0.017846
0.0159888
0.0143104
0.012731
0.0111646
0.00952216
0.00773479
0.00559399
0.249648
0.293427
0.282543
0.243948
0.194424
0.148951
0.112384
0.0855064
0.06664
0.0534865
0.044137
0.0372832
0.032092
0.028038
0.0247815
0.022094
0.0198132
0.0178169
0.0160057
0.0142879
0.0125641
0.0107237
0.00864228
0.00594373
0.00654982
0.0161947
0.0309238
0.0407199
0.0438473
0.0511634
0.0213596
0.0414097
0.0608481
0.0695034
0.0698135
0.0774601
0.0293791
0.0550686
0.0770114
0.0858154
0.0862742
0.0911998
0.0354165
0.0658908
0.0891537
0.0983107
0.0993077
0.103355
0.040317
0.0752987
0.0992722
0.109013
0.111088
0.115051
0.0443222
0.0835062
0.107937
0.118579
0.122297
0.126673
0.0476132
0.0905557
0.115359
0.127219
0.132915
0.138267
0.0503139
0.0964864
0.121653
0.134971
0.142828
0.149733
0.0525122
0.101345
0.126899
0.141798
0.151879
0.160821
0.0542818
0.10517
0.131143
0.147626
0.159872
0.170989
0.0556989
0.107977
0.134407
0.152372
0.166599
0.179794
0.056682
0.109809
0.136694
0.155951
0.171856
0.186864
0.0570163
0.110726
0.137988
0.158288
0.175476
0.191896
0.0567769
0.110732
0.138228
0.159241
0.177236
0.194519
0.0558556
0.109819
0.137484
0.158968
0.177311
0.19486
0.0542377
0.107929
0.135649
0.157344
0.17567
0.193017
0.051888
0.104975
0.132643
0.154364
0.172351
0.189025
0.0487607
0.100832
0.128345
0.149996
0.167462
0.183159
0.0448073
0.0953154
0.122562
0.144148
0.161121
0.175769
0.0399941
0.0881351
0.114985
0.1366
0.153342
0.167182
0.0342884
0.0788204
0.105089
0.126903
0.143902
0.157538
0.0276032
0.0665118
0.0919027
0.114128
0.132053
0.146347
0.0192413
0.0488608
0.0730498
0.0961117
0.11588
0.130718
0.00515398
0.0206377
0.0437851
0.0695957
0.0932193
0.116718
0.180509
0.270708
0.278522
0.254991
0.209687
0.164364
0.125665
0.0959401
0.0745271
0.0594766
0.0488295
0.0411124
0.0353439
0.0308953
0.0273612
0.0244714
0.022037
0.0199173
0.0179981
0.0161736
0.01433
0.0123306
0.00997424
0.00666614
0.129664
0.235932
0.26681
0.255231
0.221133
0.178351
0.139048
0.107176
0.0833448
0.0662717
0.0541524
0.0454282
0.0389842
0.0340821
0.0302418
0.0271457
0.0245764
0.0223766
0.0204243
0.0186142
0.0168444
0.0150311
0.0132561
0.0121788
0.113429
0.2024
0.248025
0.250002
0.228889
0.190301
0.151923
0.118864
0.092989
0.0738991
0.0601732
0.0502956
0.0430624
0.0376317
0.0334435
0.0301292
0.0274432
0.0252213
0.0233548
0.0217756
0.0204456
0.0193746
0.0187313
0.0189194
0.11859
0.179724
0.22756
0.239619
0.228479
0.199096
0.163483
0.130496
0.103231
0.082316
0.0669303
0.0557689
0.0476199
0.0415635
0.036963
0.033396
0.030589
0.0283725
0.0266515
0.0253844
0.024561
0.0242004
0.0243769
0.0251045
0.131114
0.168604
0.209718
0.227282
0.224595
0.20511
0.173317
0.14158
0.113752
0.0913956
0.074416
0.0618839
0.0526927
0.0458959
0.0407965
0.0369216
0.0339689
0.0317595
0.0301996
0.0292449
0.0288673
0.0290271
0.0296902
0.0306862
0.144177
0.167473
0.197255
0.214822
0.216913
0.205917
0.180669
0.151498
0.124112
0.100905
0.0825552
0.0686475
0.0583114
0.0506529
0.0449497
0.0406896
0.0375416
0.0353097
0.0338841
0.0331946
0.0331707
0.03368
0.03468
0.035823
0.155062
0.172266
0.191903
0.203987
0.208124
0.203319
0.185669
0.159845
0.133838
0.110507
0.0911814
0.0760156
0.0644908
0.0558633
0.0494416
0.0446975
0.0412754
0.0389553
0.0375987
0.0370975
0.0373074
0.0380849
0.039306
0.0405541
0.165292
0.182605
0.194076
0.197225
0.199834
0.198119
0.187122
0.165994
0.142406
0.119782
0.100033
0.0838736
0.0712122
0.0615511
0.0543018
0.0489587
0.0451556
0.0426475
0.0412614
0.0408472
0.0411868
0.0421419
0.0435163
0.0448462
0.175677
0.194635
0.200575
0.197535
0.193903
0.191951
0.185439
0.169789
0.149298
0.128218
0.108734
0.0920105
0.0783966
0.0677158
0.0595604
0.0535011
0.0491878
0.0463615
0.0448187
0.0443706
0.0447403
0.045775
0.0472455
0.048639
0.186174
0.205895
0.211292
0.202481
0.192448
0.187209
0.182358
0.171033
0.154244
0.135402
0.116871
0.100123
0.0858809
0.074306
0.0652306
0.0583595
0.0533995
0.0501023
0.0482494
0.0476248
0.0479213
0.0489244
0.0504297
0.051865
0.196126
0.216212
0.223569
0.21426
0.195609
0.185456
0.179173
0.170319
0.157042
0.140914
0.124004
0.107839
0.0934133
0.0811982
0.0712866
0.0635636
0.0578382
0.0539092
0.0515711
0.0506004
0.0507116
0.0515504
0.0530155
0.0544644
0.204739
0.225468
0.235849
0.228813
0.205586
0.187724
0.178153
0.169536
0.158404
0.144783
0.129802
0.114793
0.100694
0.0882021
0.077651
0.0691228
0.0625643
0.0578592
0.0548527
0.053346
0.0531003
0.0536653
0.054969
0.0563913
0.211297
0.23314
0.246713
0.243102
0.222061
0.195747
0.180177
0.169765
0.159251
0.14744
0.13429
0.120676
0.107396
0.0950614
0.0841752
0.0749995
0.0676288
0.062058
0.0582163
0.0559701
0.0551255
0.0553361
0.0562925
0.0576276
0.215093
0.238404
0.255002
0.255615
0.240272
0.211096
0.187592
0.172675
0.160947
0.149712
0.137879
0.125535
0.113259
0.101491
0.0906406
0.081084
0.0730391
0.0666116
0.06183
0.0586546
0.0569727
0.0566033
0.0570891
0.0582076
0.21589
0.240208
0.259553
0.265452
0.256006
0.230408
0.202607
0.1811
0.165739
0.15316
0.141473
0.129909
0.118458
0.107353
0.0968368
0.0872088
0.0787323
0.0715842
0.0658747
0.0616586
0.0589318
0.0576238
0.0575882
0.0582152
0.213917
0.238778
0.260035
0.270913
0.267311
0.249253
0.222153
0.196742
0.176385
0.160352
0.146974
0.134969
0.123722
0.113014
0.102829
0.0933093
0.0846408
0.0769914
0.0704978
0.0652671
0.061381
0.0588987
0.0578605
0.0580116
0.209034
0.233563
0.256135
0.270851
0.273272
0.263368
0.241704
0.216658
0.193254
0.173348
0.156823
0.142838
0.130591
0.119502
0.109242
0.0997033
0.0909041
0.0829183
0.0758359
0.0697489
0.0647538
0.0609702
0.0585956
0.0579035
0.201612
0.224846
0.247624
0.265103
0.273084
0.270006
0.256652
0.235962
0.213293
0.191572
0.172223
0.155526
0.141173
0.128648
0.117492
0.107397
0.0981908
0.0897986
0.0822032
0.0754217
0.0694964
0.0645025
0.060627
0.058601
0.192237
0.213291
0.235086
0.254109
0.26603
0.269106
0.263362
0.249615
0.231126
0.210951
0.191108
0.17278
0.156422
0.142003
0.129277
0.117964
0.107823
0.0986738
0.090394
0.0829072
0.076175
0.0701851
0.0649762
0.0612335
0.181642
0.199927
0.219746
0.238673
0.25312
0.260753
0.260966
0.254411
0.241859
0.225905
0.208429
0.190869
0.174152
0.158737
0.144763
0.132187
0.120887
0.110713
0.101526
0.0932028
0.0856558
0.0788074
0.0726076
0.0671939
0.17063
0.186012
0.203197
0.220739
0.235808
0.246139
0.250709
0.249456
0.243012
0.232223
0.218929
0.204317
0.189386
0.174813
0.161006
0.14817
0.13637
0.125586
0.11575
0.106778
0.098594
0.0911006
0.0843196
0.0777738
0.160068
0.172793
0.187163
0.202469
0.216624
0.227751
0.23448
0.236703
0.234612
0.228701
0.219753
0.208996
0.197225
0.185084
0.173056
0.161471
0.150533
0.140331
0.130862
0.122119
0.114093
0.106719
0.100099
0.0936941
0.150665
0.161351
0.173101
0.18598
0.198384
0.208688
0.215795
0.219314
0.219577
0.21683
0.211368
0.204088
0.195609
0.186474
0.177121
0.167894
0.159064
0.150793
0.14313
0.136007
0.129475
0.123576
0.118426
0.113986
0.143011
0.152413
0.161919
0.172772
0.183386
0.192209
0.19838
0.201629
0.202459
0.200909
0.197347
0.192314
0.186304
0.179738
0.172976
0.166303
0.159924
0.154048
0.148906
0.144649
0.141138
0.138278
0.136054
0.134667
)
;

boundaryField
{
    rotor
    {
        type            kqRWallFunction;
        value           nonuniform List<scalar> 
144
(
0.00354972
0.00970597
0.0316902
0.0621659
0.0907079
0.115197
0.00354972
0.0146933
0.019398
0.0219576
0.0238001
0.0249925
0.0261016
0.0272821
0.0281195
0.0286517
0.0288848
0.0288574
0.0285794
0.028157
0.0275607
0.0267597
0.0256744
0.0249398
0.0244054
0.0235573
0.022213
0.0203571
0.0166223
0.0045718
0.0045718
0.00908732
0.0143982
0.0208937
0.0245646
0.0327741
0.00573457
0.0265694
0.0617173
0.0993553
0.144845
0.153331
0.00573457
0.0196325
0.0249146
0.0278258
0.0316625
0.0343946
0.036241
0.0374228
0.0380954
0.0383573
0.0382683
0.037847
0.037097
0.0360214
0.0346343
0.0329415
0.0309567
0.0286136
0.0258029
0.0245835
0.0231311
0.0211219
0.01723
0.00465696
0.00465696
0.00700718
0.0135607
0.0316732
0.0723703
0.0900234
0.00505402
0.0223719
0.0538819
0.080121
0.0945777
0.100901
0.00505402
0.0169489
0.0253682
0.0317866
0.037325
0.0420441
0.045901
0.0489483
0.0512638
0.052923
0.0539864
0.0544969
0.0545518
0.0543745
0.053875
0.0529655
0.0515489
0.0495067
0.0466784
0.0428549
0.0377964
0.0312748
0.0226026
0.00702434
0.00702434
0.0180456
0.0413396
0.068749
0.102977
0.131061
0.00654982
0.0161947
0.0309238
0.0407199
0.0438473
0.0511634
0.00654982
0.0213596
0.0293791
0.0354165
0.040317
0.0443222
0.0476132