/*--------------------------------*- C++ -*----------------------------------*\
  =========                 |
  \\      /  F ield         | OpenFOAM: The Open Source CFD Toolbox
   \\    /   O peration     | Website:  https://openfoam.org
    \\  /    A nd           | Version:  11
     \\/     M anipulation  |
\*---------------------------------------------------------------------------*/
FoamFile
{
    format      ascii;
    class       surfaceScalarField;
    location    "0.48";
    object      meshPhi;
}
// * * * * * * * * * * * * * * * * * * * * * * * * * * * * * * * * * * * * * //

dimensions      [0 3 -1 0 0 0 0];

internalField   nonuniform List<scalar> 
5640
(
1.36873e-16
9.81747e-07
2.41983e-16
1.37445e-06
3.76849e-16
1.76715e-06
-1.33953e-15
2.15984e-06
-3.68172e-15
2.55254e-06
2.94524e-06
5.95079e-15
1.79162e-18
9.81747e-07
-3.88864e-16
1.37445e-06
-2.60434e-15
1.76715e-06
1.94337e-15
2.15984e-06
8.06583e-15
2.55254e-06
2.94524e-06
-9.03026e-15
-1.16505e-16
9.81747e-07
1.8631e-16
1.37445e-06
-1.56253e-15
1.76715e-06
-4.21277e-15
2.15984e-06
-7.49877e-15
2.55254e-06
2.94524e-06
7.71832e-16
8.6911e-17
9.81747e-07
-1.02033e-16
1.37445e-06
2.69304e-15
1.76715e-06
7.44267e-15
2.15984e-06
3.25965e-15
2.55254e-06
2.94524e-06
-2.79839e-15
-4.84191e-17
9.81747e-07
3.94147e-17
1.37445e-06
1.94243e-16
1.76715e-06
-1.80633e-15
2.15984e-06
-4.20877e-15
2.55254e-06
2.94524e-06
5.01309e-15
-1.80156e-16
9.81747e-07
4.25472e-18
1.37445e-06
-1.84787e-15
1.76715e-06
-3.88628e-15
2.15984e-06
3.15681e-15
2.55254e-06
2.94524e-06
4.97762e-16
2.53913e-16
9.81747e-07
2.55319e-16
1.37445e-06
2.06585e-15
1.76715e-06
4.50394e-15
2.15984e-06
-2.3102e-15
2.55254e-06
2.94524e-06
5.40372e-16
2.15961e-17
9.81747e-07
-3.21762e-16
1.37445e-06
-1.14898e-15
1.76715e-06
-5.28585e-15
2.15984e-06
-3.77118e-16
2.55254e-06
2.94524e-06
-5.6402e-15
-1.43448e-16
9.81747e-07
1.66332e-16
1.37445e-06
4.19103e-15
1.76715e-06
6.34912e-15
2.15984e-06
-8.05932e-16
2.55254e-06
2.94524e-06
8.38972e-16
-6.88519e-17
9.81747e-07
-9.21199e-17
1.37445e-06
-2.76953e-15
1.76715e-06
-3.68955e-16
2.15984e-06
-1.45118e-15
2.55254e-06
2.94524e-06
-1.77027e-16
1.66256e-16
9.81747e-07
-8.87506e-17
1.37445e-06
5.69443e-16
1.76715e-06
-2.10376e-15
2.15984e-06
9.65966e-15
2.55254e-06
2.94524e-06
5.28973e-15
-1.77848e-16
9.81747e-07
-2.05781e-17
1.37445e-06
-3.45617e-16
1.76715e-06
-4.17284e-15
2.15984e-06
-2.62267e-15
2.55254e-06
2.94524e-06
5.36916e-15
1.77706e-16
9.81747e-07
2.04e-17
1.37445e-06
3.45365e-16
1.76715e-06
4.17243e-15
2.15984e-06
2.62211e-15
2.55254e-06
2.94524e-06
-5.3697e-15
-1.66391e-16
9.81747e-07
8.86197e-17
1.37445e-06
-5.69897e-16
1.76715e-06
2.10322e-15
2.15984e-06
-9.66034e-15
2.55254e-06
2.94524e-06
-5.29057e-15
6.87656e-17
9.81747e-07
9.19798e-17
1.37445e-06
2.76921e-15
1.76715e-06
3.68506e-16
2.15984e-06
1.45055e-15
2.55254e-06
2.94524e-06
1.76208e-16
1.43351e-16
9.81747e-07
-1.66498e-16
1.37445e-06
-4.19131e-15
1.76715e-06
-6.34972e-15
2.15984e-06
8.05458e-16
2.55254e-06
2.94524e-06
-8.3978e-16
-2.17146e-17
9.81747e-07
3.21559e-16
1.37445e-06
1.14877e-15
1.76715e-06
5.28538e-15
2.15984e-06
3.76387e-16
2.55254e-06
2.94524e-06
5.63931e-15
-2.54027e-16
9.81747e-07
-2.55521e-16
1.37445e-06
-2.06613e-15
1.76715e-06
-4.50432e-15
2.15984e-06
2.30966e-15
2.55254e-06
2.94524e-06
-5.41196e-16
1.80048e-16
9.81747e-07
-4.41861e-18
1.37445e-06
1.84761e-15
1.76715e-06
3.88597e-15
2.15984e-06
-3.15733e-15
2.55254e-06
2.94524e-06
-4.98622e-16
4.83167e-17
9.81747e-07
-3.96233e-17
1.37445e-06
-1.94466e-16
1.76715e-06
1.80585e-15
2.15984e-06
4.2082e-15
2.55254e-06
2.94524e-06
-5.01393e-15
-8.69744e-17
9.81747e-07
1.0184e-16
1.37445e-06
-2.69333e-15
1.76715e-06
-7.44297e-15
2.15984e-06
-3.26003e-15
2.55254e-06
2.94524e-06
2.79761e-15
1.1641e-16
9.81747e-07
-1.86452e-16
1.37445e-06
1.56219e-15
1.76715e-06
4.21229e-15
2.15984e-06
7.49813e-15
2.55254e-06
2.94524e-06
-7.72874e-16
-1.8761e-18
9.81747e-07
3.88725e-16
1.37445e-06
2.60403e-15
1.76715e-06
-1.94383e-15
2.15984e-06
-8.0666e-15
2.55254e-06
2.94524e-06
9.02954e-15
-1.36994e-16
-2.42186e-16
-3.77108e-16
1.33907e-15
3.68122e-15
-5.95157e-15
-1.13367e-14
4.53785e-06
-4.53785e-06
-4.81633e-16
5.23599e-06
-5.23599e-06
-5.35802e-15
5.93412e-06
-5.93412e-06
-1.13044e-14
6.63225e-06
-6.63225e-06
4.86806e-15
7.33038e-06
-7.33038e-06
-1.11126e-15
8.02851e-06
-8.02851e-06
-8.15962e-15
8.72664e-06
-8.72664e-06
1.30423e-14
9.42478e-06
-9.42478e-06
5.94769e-15
1.01229e-05
-1.01229e-05
-1.99935e-15
1.0821e-05
-1.0821e-05
2.43822e-14
1.15192e-05
-1.15192e-05
1.61854e-14
1.22173e-05
-1.22173e-05
-3.27917e-14
1.29154e-05
-1.29154e-05
-3.0577e-15
1.36136e-05
-1.36136e-05
-1.44456e-14
1.43117e-05
-1.43117e-05
-2.69082e-14
1.50098e-05
-1.50098e-05
7.73447e-15
1.5708e-05
-1.5708e-05
-4.44505e-15
1.64061e-05
-1.64061e-05
-1.80042e-14
1.71042e-05
-1.71042e-05
2.18157e-14
1.78024e-05
-1.78024e-05
8.20548e-15
1.85005e-05
-1.85005e-05
-6.0967e-15
1.91986e-05
-1.91986e-05
3.89105e-14
1.98967e-05
-1.98967e-05
2.05949e-05
-2.05949e-05
9.39833e-15
4.53785e-06
5.19841e-16
5.23599e-06
7.52756e-15
5.93412e-06
-4.41282e-15
6.63225e-06
3.78193e-15
7.33038e-06
1.33838e-14
8.02851e-06
-2.11167e-15
8.72664e-06
8.52657e-15
9.42478e-06
-1.00288e-14
1.01229e-05
1.86455e-15
1.0821e-05
-2.02061e-14
1.15192e-05
-7.01669e-15
1.22173e-05
7.50718e-15
1.29154e-05
2.36056e-14
1.36136e-05
-2.04849e-15
1.43117e-05
1.48271e-14
1.50098e-05
-1.38831e-14
1.5708e-05
2.38432e-15
1.64061e-05
2.04038e-14
1.71042e-05
-7.0232e-15
1.78024e-05
1.20631e-14
1.85005e-05
-2.59486e-14
1.91986e-05
1.83487e-15
1.98967e-05
2.05949e-05
-8.67685e-15
4.53785e-06
1.2292e-14
5.23599e-06
1.88233e-15
5.93412e-06
8.90082e-15
6.63225e-06
-5.11011e-15
7.33038e-06
-2.1992e-14
8.02851e-06
1.22625e-14
8.72664e-06
-5.3763e-15
9.42478e-06
4.4541e-15
1.01229e-05
-1.43074e-14
1.0821e-05
-7.32803e-15
1.15192e-05
7.03748e-15
1.22173e-05
2.39927e-14
1.29154e-05
-7.55907e-15
1.36136e-05
9.79487e-15
1.43117e-05
-1.62414e-14
1.50098e-05
4.02892e-14
1.5708e-05
1.44393e-14
1.64061e-05
-1.3711e-14
1.71042e-05
-7.90558e-15
1.78024e-05
-3.92536e-14
1.85005e-05
4.27482e-14
1.91986e-05
-8.85877e-15
1.98967e-05
2.05949e-05
5.98536e-15
4.53785e-06
2.1847e-16
5.23599e-06
-6.43632e-15
5.93412e-06
6.06288e-15
6.63225e-06
-2.09401e-15
7.33038e-06
1.61756e-14
8.02851e-06
-1.88333e-14
8.72664e-06
-2.35218e-15
9.42478e-06
9.16967e-15
1.01229e-05
-4.71332e-15
1.0821e-05
2.16243e-14
1.15192e-05
-2.96491e-14
1.22173e-05
-9.2946e-15
1.29154e-05
-1.89098e-14
1.36136e-05
4.46502e-15
1.43117e-05
3.01517e-14
1.50098e-05
-2.6224e-14
1.5708e-05
4.29269e-16
1.64061e-05
-2.11771e-14
1.71042e-05
1.87055e-14
1.78024e-05
-3.9266e-15
1.85005e-05
-2.9161e-14
1.91986e-05
1.5224e-14
1.98967e-05
2.05949e-05
6.7148e-15
4.53785e-06
-7.30712e-15
5.23599e-06
1.11002e-14
5.93412e-06
-4.24162e-15
6.63225e-06
1.51012e-14
7.33038e-06
-5.21107e-15
8.02851e-06
1.70119e-14
8.72664e-06
-3.94332e-15
9.42478e-06
-2.96402e-16
1.01229e-05
6.6096e-15
1.0821e-05
1.37016e-14
1.15192e-05
1.01815e-14
1.22173e-05
1.82132e-14
1.29154e-05
1.43646e-14
1.36136e-05
2.33364e-14
1.43117e-05
-2.53497e-14
1.50098e-05
2.90674e-14
1.5708e-05
-7.83528e-15
1.64061e-05
3.54085e-14
1.71042e-05
-4.51951e-15
1.78024e-05
4.23664e-14
1.85005e-05
-5.92006e-16
1.91986e-05
-8.74339e-15
1.98967e-05
2.05949e-05
-4.63087e-15
4.53785e-06
5.79715e-15
5.23599e-06
-1.61517e-14
5.93412e-06
-5.97473e-15
6.63225e-06
-8.55566e-15
7.33038e-06
4.22278e-15
8.02851e-06
-8.18968e-15
8.72664e-06
6.99762e-15
9.42478e-06
-2.42317e-14
1.01229e-05
-7.77091e-15
1.0821e-05
-2.27696e-14
1.15192e-05
8.34642e-15
1.22173e-05
-7.40751e-15
1.29154e-05
2.82625e-14
1.36136e-05
-4.57146e-14
1.43117e-05
-8.22373e-15
1.50098e-05
-2.82338e-14
1.5708e-05
-2.34296e-15
1.64061e-05
-6.95219e-15
1.71042e-05
2.21418e-14
1.78024e-05
-3.41151e-14
1.85005e-05
-3.74742e-15
1.91986e-05
-3.23542e-14
1.98967e-05
2.05949e-05
-8.92543e-15
4.53785e-06
-2.28969e-15
5.23599e-06
-2.22528e-15
5.93412e-06
6.61521e-15
6.63225e-06
-3.38877e-15
7.33038e-06
-3.90854e-15
8.02851e-06
-6.42089e-15
8.72664e-06
-7.15949e-15
9.42478e-06
6.80872e-15
1.01229e-05
6.97907e-15
1.0821e-05
-9.06994e-15
1.15192e-05
6.75612e-15
1.22173e-05
-2.88926e-14
1.29154e-05
-1.22391e-14
1.36136e-05
4.7985e-15
1.43117e-05
2.50254e-14
1.50098e-05
3.85512e-15
1.5708e-05
3.60096e-15
1.64061e-05
-2.0493e-14
1.71042e-05
-2.17676e-14
1.78024e-05
3.46065e-15
1.85005e-05
2.90339e-14
1.91986e-05
-1.66891e-15
1.98967e-05
2.05949e-05
6.21534e-15
4.53785e-06
-3.88008e-15
5.23599e-06
1.54212e-14
5.93412e-06
-7.06615e-15
6.63225e-06
-2.21171e-15
7.33038e-06
1.42825e-15
8.02851e-06
-5.4939e-15
8.72664e-06
1.3225e-14
9.42478e-06
6.04437e-15
1.01229e-05
-1.7453e-14
1.0821e-05
2.08836e-14
1.15192e-05
-2.14481e-14
1.22173e-05
1.91295e-14
1.29154e-05
-7.32067e-15
1.36136e-05
3.84811e-14
1.43117e-05
-1.29271e-14
1.50098e-05
-1.88869e-15
1.5708e-05
5.713e-15
1.64061e-05
-7.59238e-15
1.71042e-05
2.76513e-14
1.78024e-05
1.40926e-14
1.85005e-05
-5.31527e-14
1.91986e-05
3.90807e-14
1.98967e-05
2.05949e-05
-1.49907e-15
4.53785e-06
1.08963e-14
5.23599e-06
-6.59999e-15
5.93412e-06
7.26455e-15
6.63225e-06
6.1736e-15
7.33038e-06
2.48755e-15
8.02851e-06
-9.66243e-16
8.72664e-06
-4.36641e-15
9.42478e-06
-8.90251e-15
1.01229e-05
1.38609e-14
1.0821e-05
1.06879e-14
1.15192e-05
6.24631e-15
1.22173e-05
-1.30469e-16
1.29154e-05
-3.4422e-15
1.36136e-05
-1.10478e-14
1.43117e-05
-1.77709e-14
1.50098e-05
1.76766e-14
1.5708e-05
9.95021e-15
1.64061e-05
3.32092e-15
1.71042e-05
-3.29752e-14
1.78024e-05
-1.04291e-14
1.85005e-05
3.00635e-14
1.91986e-05
-6.00014e-14
1.98967e-05
2.05949e-05
5.16963e-15
4.53785e-06
-7.45633e-15
5.23599e-06
-7.57696e-16
5.93412e-06
6.83861e-15
6.63225e-06
-9.97594e-15
7.33038e-06
-1.66636e-15
8.02851e-06
9.21735e-15
8.72664e-06
-1.34607e-14
9.42478e-06
2.32186e-14
1.01229e-05
1.04703e-14
1.0821e-05
-1.72758e-14
1.15192e-05
-3.03078e-15
1.22173e-05
1.13948e-14
1.29154e-05
-1.98202e-14
1.36136e-05
-4.68399e-15
1.43117e-05
5.03027e-14
1.50098e-05
-2.40509e-14
1.5708e-05
-6.66544e-15
1.64061e-05
1.42559e-14
1.71042e-05
1.64527e-15
1.78024e-05
-6.81678e-15
1.85005e-05
1.44335e-14
1.91986e-05
5.07522e-14
1.98967e-05
2.05949e-05
-6.19789e-15
4.53785e-06
2.79804e-17
5.23599e-06
1.15106e-14
5.93412e-06
-2.06272e-14
6.63225e-06
5.36594e-15
7.33038e-06
1.22004e-15
8.02851e-06
-5.00595e-17
8.72664e-06
1.23915e-14
9.42478e-06
-1.32298e-14
1.01229e-05
-1.88975e-14
1.0821e-05
-4.96717e-15
1.15192e-05
-7.15671e-15
1.22173e-05
-1.48891e-14
1.29154e-05
3.53338e-14
1.36136e-05
-5.55242e-18
1.43117e-05
-4.3142e-14
1.50098e-05
1.35558e-14
1.5708e-05
-2.82641e-14
1.64061e-05
2.44843e-15
1.71042e-05
-1.02461e-14
1.78024e-05
2.37985e-14
1.85005e-05
1.38643e-14
1.91986e-05
-4.55721e-14
1.98967e-05
2.05949e-05
-1.90735e-15
4.53785e-06
1.12996e-15
5.23599e-06
-2.16626e-14
5.93412e-06
9.62304e-15
6.63225e-06
1.51357e-14
7.33038e-06
-1.40666e-14
8.02851e-06
8.09115e-15
8.72664e-06
-2.69621e-14
9.42478e-06
-1.96798e-15
1.01229e-05
2.97131e-14
1.0821e-05
-1.17485e-14
1.15192e-05
1.98637e-14
1.22173e-05
-2.74486e-14
1.29154e-05
-2.06187e-14
1.36136e-05
1.60376e-14
1.43117e-05
-4.61809e-15
1.50098e-05
4.68711e-15
1.5708e-05
4.79603e-14
1.64061e-05
-1.37476e-14
1.71042e-05
3.23646e-14
1.78024e-05
-3.51971e-14
1.85005e-05
-2.49146e-14
1.91986e-05
7.19018e-14
1.98967e-05
2.05949e-05
1.90616e-15
4.53785e-06
-1.13136e-15
5.23599e-06
2.1661e-14
5.93412e-06
-9.62491e-15
6.63225e-06
-1.51381e-14
7.33038e-06
1.4064e-14
8.02851e-06
-8.09534e-15
8.72664e-06
2.69578e-14
9.42478e-06
1.96334e-15
1.01229e-05
-2.97202e-14
1.0821e-05
1.17403e-14
1.15192e-05
-1.98703e-14
1.22173e-05
2.7441e-14
1.29154e-05
2.06132e-14
1.36136e-05
-1.60455e-14
1.43117e-05
4.60819e-15
1.50098e-05
-4.69712e-15
1.5708e-05
-4.79721e-14
1.64061e-05
1.3729e-14
1.71042e-05
-3.23814e-14
1.78024e-05
3.51731e-14
1.85005e-05
2.48966e-14
1.91986e-05
-7.19251e-14
1.98967e-05
2.05949e-05
6.19662e-15
4.53785e-06
-2.90894e-17
5.23599e-06
-1.15128e-14
5.93412e-06
2.06247e-14
6.63225e-06
-5.36821e-15
7.33038e-06
-1.22342e-15
8.02851e-06
4.51703e-17
8.72664e-06
-1.2396e-14
9.42478e-06
1.32243e-14
1.01229e-05
1.88907e-14
1.0821e-05
4.96205e-15
1.15192e-05
7.14932e-15
1.22173e-05
1.48823e-14
1.29154e-05
-3.53414e-14
1.36136e-05
-4.37079e-18
1.43117e-05
4.31317e-14
1.50098e-05
-1.35666e-14
1.5708e-05
2.8249e-14
1.64061e-05
-2.46069e-15
1.71042e-05
1.02307e-14
1.78024e-05
-2.38134e-14
1.85005e-05
-1.38849e-14
1.91986e-05
4.5556e-14
1.98967e-05
2.05949e-05
-5.17073e-15
4.53785e-06
7.45462e-15
5.23599e-06
7.55777e-16
5.93412e-06
-6.84044e-15
6.63225e-06
9.97288e-15
7.33038e-06
1.66324e-15
8.02851e-06
-9.22033e-15
8.72664e-06
1.34568e-14
9.42478e-06
-2.32232e-14
1.01229e-05
-1.04767e-14
1.0821e-05
1.72688e-14
1.15192e-05
3.02311e-15
1.22173e-05
-1.1401e-14
1.29154e-05
1.98134e-14
1.36136e-05
4.67224e-15
1.43117e-05
-5.03112e-14
1.50098e-05
2.40402e-14
1.5708e-05
6.65298e-15
1.64061e-05
-1.42677e-14
1.71042e-05
-1.65685e-15
1.78024e-05
6.80048e-15
1.85005e-05
-1.44497e-14
1.91986e-05
-5.077e-14
1.98967e-05
2.05949e-05
1.49795e-15
4.53785e-06
-1.08977e-14
5.23599e-06
6.59831e-15
5.93412e-06
-7.26689e-15
6.63225e-06
-6.17621e-15
7.33038e-06
-2.49028e-15
8.02851e-06
9.62984e-16
8.72664e-06
4.36164e-15
9.42478e-06
8.89825e-15
1.01229e-05
-1.38654e-14
1.0821e-05
-1.06939e-14
1.15192e-05
-6.25447e-15
1.22173e-05
1.23157e-16
1.29154e-05
3.43421e-15
1.36136e-05
1.10387e-14
1.43117e-05
1.7759e-14
1.50098e-05
-1.76888e-14
1.5708e-05
-9.96114e-15
1.64061e-05
-3.33511e-15
1.71042e-05
3.29618e-14
1.78024e-05
1.04127e-14
1.85005e-05
-3.00772e-14
1.91986e-05
5.99842e-14
1.98967e-05
2.05949e-05
-6.21623e-15
4.53785e-06
3.87894e-15
5.23599e-06
-1.5423e-14
5.93412e-06
7.06431e-15
6.63225e-06
2.20938e-15
7.33038e-06
-1.43131e-15
8.02851e-06
5.49108e-15
8.72664e-06
-1.32282e-14
9.42478e-06
-6.04859e-15
1.01229e-05
1.74477e-14
1.0821e-05
-2.08895e-14
1.15192e-05
2.14409e-14
1.22173e-05
-1.91389e-14
1.29154e-05
7.31268e-15
1.36136e-05
-3.84907e-14
1.43117e-05
1.29187e-14
1.50098e-05
1.87554e-15
1.5708e-05
-5.72524e-15
1.64061e-05
7.57841e-15
1.71042e-05
-2.76662e-14
1.78024e-05
-1.41079e-14
1.85005e-05
5.31284e-14
1.91986e-05
-3.90955e-14
1.98967e-05
2.05949e-05
8.92475e-15
4.53785e-06
2.28805e-15
5.23599e-06
2.22328e-15
5.93412e-06
-6.61792e-15
6.63225e-06
3.38712e-15
7.33038e-06
3.90501e-15
8.02851e-06
6.41633e-15
8.72664e-06
7.15716e-15
9.42478e-06
-6.81193e-15
1.01229e-05
-6.98673e-15
1.0821e-05
9.06134e-15
1.15192e-05
-6.76353e-15
1.22173e-05
2.88854e-14
1.29154e-05
1.22286e-14
1.36136e-05
-4.80904e-15
1.43117e-05
-2.50307e-14
1.50098e-05
-3.86644e-15
1.5708e-05
-3.61411e-15
1.64061e-05
2.04764e-14
1.71042e-05
2.1752e-14
1.78024e-05
-3.47591e-15
1.85005e-05
-2.90468e-14
1.91986e-05
1.65306e-15
1.98967e-05
2.05949e-05
4.62985e-15
4.53785e-06
-5.79813e-15
5.23599e-06
1.61498e-14
5.93412e-06
5.97337e-15
6.63225e-06
8.55406e-15
7.33038e-06
-4.22554e-15
8.02851e-06
8.18534e-15
8.72664e-06
-7.00143e-15
9.42478e-06
2.42275e-14
1.01229e-05
7.7665e-15
1.0821e-05
2.276e-14
1.15192e-05
-8.35298e-15
1.22173e-05
7.39938e-15
1.29154e-05
-2.82698e-14
1.36136e-05
4.57046e-14
1.43117e-05
8.21733e-15
1.50098e-05
2.82211e-14
1.5708e-05
2.33169e-15
1.64061e-05
6.93602e-15
1.71042e-05
-2.21594e-14
1.78024e-05
3.41008e-14
1.85005e-05
3.73305e-15
1.91986e-05
3.23388e-14
1.98967e-05
2.05949e-05
-6.71574e-15
4.53785e-06
7.3059e-15
5.23599e-06
-1.11016e-14
5.93412e-06
4.24035e-15
6.63225e-06
-1.51033e-14
7.33038e-06
5.20767e-15
8.02851e-06
-1.70151e-14
8.72664e-06
3.93874e-15
9.42478e-06
2.92688e-16
1.01229e-05
-6.61357e-15
1.0821e-05
-1.37087e-14
1.15192e-05
-1.01884e-14
1.22173e-05
-1.82214e-14
1.29154e-05
-1.43707e-14
1.36136e-05
-2.3344e-14
1.43117e-05
2.53403e-14
1.50098e-05
-2.90791e-14
1.5708e-05
7.82434e-15
1.64061e-05
-3.54232e-14
1.71042e-05
4.50388e-15
1.78024e-05
-4.23778e-14
1.85005e-05
5.77983e-16
1.91986e-05
8.72093e-15
1.98967e-05
2.05949e-05
-5.98621e-15
4.53785e-06
-2.19903e-16
5.23599e-06
6.43478e-15
5.93412e-06
-6.06463e-15
6.63225e-06
2.09142e-15
7.33038e-06
-1.6178e-14
8.02851e-06
1.88288e-14
8.72664e-06
2.35025e-15
9.42478e-06
-9.17326e-15
1.01229e-05
4.70769e-15
1.0821e-05
-2.1631e-14
1.15192e-05
2.96412e-14
1.22173e-05
9.28731e-15
1.29154e-05
1.89023e-14
1.36136e-05
-4.47027e-15
1.43117e-05
-3.01594e-14
1.50098e-05
2.621e-14
1.5708e-05
-4.41554e-16
1.64061e-05
2.11621e-14
1.71042e-05
-1.8722e-14
1.78024e-05
3.91289e-15
1.85005e-05
2.91487e-14
1.91986e-05
-1.52409e-14
1.98967e-05
2.05949e-05
8.6758e-15
4.53785e-06
-1.22932e-14
5.23599e-06
-1.88397e-15
5.93412e-06
-8.90263e-15
6.63225e-06
5.10688e-15
7.33038e-06
2.19886e-14
8.02851e-06
-1.22663e-14
8.72664e-06
5.37258e-15
9.42478e-06
-4.45886e-15
1.01229e-05
1.43027e-14
1.0821e-05
7.32323e-15
1.15192e-05
-7.04458e-15
1.22173e-05
-2.39998e-14
1.29154e-05
7.55303e-15
1.36136e-05
-9.80642e-15
1.43117e-05
1.6231e-14
1.50098e-05
-4.02983e-14
1.5708e-05
-1.4452e-14
1.64061e-05
1.36961e-14
1.71042e-05
7.88627e-15
1.78024e-05
3.92455e-14
1.85005e-05
-4.27606e-14
1.91986e-05
8.83887e-15
1.98967e-05
2.05949e-05
-9.39941e-15
4.53785e-06
-5.20946e-16
5.23599e-06
-7.52939e-15
5.93412e-06
4.41066e-15
6.63225e-06
-3.78497e-15
7.33038e-06
-1.33867e-14
8.02851e-06
2.10787e-15
8.72664e-06
-8.53008e-15
9.42478e-06
1.00246e-14
1.01229e-05
-1.86791e-15
1.0821e-05
2.01999e-14
1.15192e-05
7.00941e-15
1.22173e-05
-7.51582e-15
1.29154e-05
-2.36121e-14
1.36136e-05
2.03604e-15
1.43117e-05
-1.48392e-14
1.50098e-05
1.38734e-14
1.5708e-05
-2.40089e-15
1.64061e-05
-2.04177e-14
1.71042e-05
7.0092e-15
1.78024e-05
-1.20723e-14
1.85005e-05
2.59343e-14
1.91986e-05
-1.85598e-15
1.98967e-05
2.05949e-05
1.13356e-14
4.53785e-06
4.80226e-16
5.23599e-06
5.35637e-15
5.93412e-06
1.13017e-14
6.63225e-06
-4.87036e-15
7.33038e-06
1.10716e-15
8.02851e-06
8.157e-15
8.72664e-06
-1.30461e-14
9.42478e-06
-5.95185e-15
1.01229e-05
1.99354e-15
1.0821e-05
-2.43916e-14
1.15192e-05
-1.61928e-14
1.22173e-05
3.27822e-14
1.29154e-05
3.04582e-15
1.36136e-05
1.44367e-14
1.43117e-05
2.68959e-14
1.50098e-05
-7.74595e-15
1.5708e-05
4.42863e-15
1.64061e-05
1.79925e-14
1.71042e-05
-2.18264e-14
1.78024e-05
-8.22288e-15
1.85005e-05
6.0735e-15
1.91986e-05
-3.89285e-14
1.98967e-05
2.05949e-05
1.36901e-16
9.81747e-07
2.42002e-16
1.37445e-06
3.76849e-16
1.76715e-06
-1.33956e-15
2.15984e-06
-3.68186e-15
2.55254e-06
2.94524e-06
5.95079e-15
1.79162e-18
9.81747e-07
-3.88864e-16
1.37445e-06
-2.60434e-15
1.76715e-06
1.94337e-15
2.15984e-06
8.06583e-15
2.55254e-06
2.94524e-06
-9.03026e-15
-1.16505e-16
9.81747e-07
1.8631e-16
1.37445e-06
-1.56253e-15
1.76715e-06
-4.21277e-15
2.15984e-06
-7.49877e-15
2.55254e-06
2.94524e-06
7.71832e-16
8.6911e-17
9.81747e-07
-1.02033e-16
1.37445e-06
2.69304e-15
1.76715e-06
7.44267e-15
2.15984e-06
3.25965e-15
2.55254e-06
2.94524e-06
-2.79839e-15
-4.84191e-17
9.81747e-07
3.94147e-17
1.37445e-06
1.94243e-16
1.76715e-06
-1.80633e-15
2.15984e-06
-4.20877e-15
2.55254e-06
2.94524e-06
5.01309e-15
-1.80156e-16
9.81747e-07
4.25472e-18
1.37445e-06
-1.84787e-15
1.76715e-06
-3.88628e-15
2.15984e-06
3.15681e-15
2.55254e-06
2.94524e-06
4.97762e-16
2.53913e-16
9.81747e-07
2.55319e-16
1.37445e-06
2.06585e-15
1.76715e-06
4.50394e-15
2.15984e-06
-2.3102e-15
2.55254e-06
2.94524e-06
5.40372e-16
2.15961e-17
9.81747e-07
-3.21762e-16
1.37445e-06
-1.14898e-15
1.76715e-06
-5.28585e-15
2.15984e-06
-3.77118e-16
2.55254e-06
2.94524e-06
-5.6402e-15
-1.43448e-16
9.81747e-07
1.66332e-16
1.37445e-06
4.19103e-15
1.76715e-06
6.34912e-15
2.15984e-06
-8.05932e-16
2.55254e-06
2.94524e-06
8.38972e-16
-6.88519e-17
9.81747e-07
-9.21199e-17
1.37445e-06
-2.76953e-15
1.76715e-06
-3.68955e-16
2.15984e-06
-1.45118e-15
2.55254e-06
2.94524e-06
-1.77027e-16
1.66256e-16
9.81747e-07
-8.87506e-17
1.37445e-06
5.69443e-16
1.76715e-06
-2.10376e-15
2.15984e-06
9.65966e-15
2.55254e-06
2.94524e-06
5.28973e-15
-1.77848e-16
9.81747e-07
-2.05781e-17
1.37445e-06
-3.45617e-16
1.76715e-06
-4.17284e-15
2.15984e-06
-2.62267e-15
2.55254e-06
2.94524e-06
5.36916e-15
1.77706e-16
9.81747e-07
2.04e-17
1.37445e-06
3.45365e-16
1.76715e-06
4.17243e-15
2.15984e-06
2.62211e-15
2.55254e-06
2.94524e-06
-5.3697e-15
-1.66391e-16
9.81747e-07
8.86197e-17
1.37445e-06
-5.69897e-16
1.76715e-06
2.10322e-15
2.15984e-06
-9.66034e-15
2.55254e-06
2.94524e-06
-5.29057e-15
6.87656e-17
9.81747e-07
9.19798e-17
1.37445e-06
2.76921e-15
1.76715e-06
3.68506e-16
2.15984e-06
1.45055e-15
2.55254e-06
2.94524e-06
1.76208e-16
1.43351e-16
9.81747e-07
-1.66498e-16
1.37445e-06
-4.19131e-15
1.76715e-06
-6.34972e-15
2.15984e-06
8.05458e-16
2.55254e-06
2.94524e-06
-8.3978e-16
-2.17146e-17
9.81747e-07
3.21559e-16
1.37445e-06
1.14877e-15
1.76715e-06
5.28538e-15
2.15984e-06
3.76387e-16
2.55254e-06
2.94524e-06
5.63931e-15
-2.54027e-16
9.81747e-07
-2.55521e-16
1.37445e-06
-2.06613e-15
1.76715e-06
-4.50432e-15
2.15984e-06
2.30966e-15
2.55254e-06
2.94524e-06
-5.41196e-16
1.80048e-16
9.81747e-07
-4.41861e-18
1.37445e-06
1.84761e-15
1.76715e-06
3.88597e-15
2.15984e-06
-3.15733e-15
2.55254e-06
2.94524e-06
-4.98622e-16
4.83167e-17
9.81747e-07
-3.96233e-17
1.37445e-06
-1.94466e-16
1.76715e-06
1.80585e-15
2.15984e-06
4.2082e-15
2.55254e-06
2.94524e-06
-5.01393e-15
-8.69744e-17
9.81747e-07
1.0184e-16
1.37445e-06
-2.69333e-15
1.76715e-06
-7.44297e-15
2.15984e-06
-3.26003e-15
2.55254e-06
2.94524e-06
2.79761e-15
1.1641e-16
9.81747e-07
-1.86452e-16
1.37445e-06
1.56219e-15
1.76715e-06
4.21229e-15
2.15984e-06
7.49813e-15
2.55254e-06
2.94524e-06
-7.72874e-16
-1.8761e-18
9.81747e-07
3.88725e-16
1.37445e-06
2.60403e-15
1.76715e-06
-1.94383e-15
2.15984e-06
-8.0666e-15
2.55254e-06
2.94524e-06
9.02954e-15
-1.36994e-16
-2.42242e-16
-3.77133e-16
1.33907e-15
3.68115e-15
-5.95157e-15
-1.13368e-14
4.53785e-06
-4.81633e-16
5.23599e-06
-5.35825e-15
5.93412e-06
-1.13049e-14
6.63225e-06
4.86806e-15
7.33038e-06
-1.11096e-15
8.02851e-06
-8.15994e-15
8.72664e-06
1.30434e-14
9.42478e-06
5.9477e-15
1.01229e-05
-1.99812e-15
1.0821e-05
2.43835e-14
1.15192e-05
1.61868e-14
1.22173e-05
-3.27917e-14
1.29154e-05
-3.05669e-15
1.36136e-05
-1.44456e-14
1.43117e-05
-2.69049e-14
1.50098e-05
7.73563e-15
1.5708e-05
-4.44382e-15
1.64061e-05
-1.80054e-14
1.71042e-05
2.18144e-14
1.78024e-05
8.20547e-15
1.85005e-05
-6.09529e-15
1.91986e-05
3.89134e-14
1.98967e-05
2.05949e-05
9.39833e-15
4.53785e-06
5.19841e-16
5.23599e-06
7.52756e-15
5.93412e-06
-4.41282e-15
6.63225e-06
3.78193e-15
7.33038e-06
1.33838e-14
8.02851e-06
-2.11167e-15
8.72664e-06
8.52657e-15
9.42478e-06
-1.00288e-14
1.01229e-05
1.86455e-15
1.0821e-05
-2.02061e-14
1.15192e-05
-7.01669e-15
1.22173e-05
7.50718e-15
1.29154e-05
2.36056e-14
1.36136e-05
-2.04849e-15
1.43117e-05
1.48271e-14
1.50098e-05
-1.38831e-14
1.5708e-05
2.38432e-15
1.64061e-05
2.04038e-14
1.71042e-05
-7.0232e-15
1.78024e-05
1.20631e-14
1.85005e-05
-2.59486e-14
1.91986e-05
1.83487e-15
1.98967e-05
2.05949e-05
-8.67685e-15
4.53785e-06
1.2292e-14
5.23599e-06
1.88233e-15
5.93412e-06
8.90082e-15
6.63225e-06
-5.11011e-15
7.33038e-06
-2.1992e-14
8.02851e-06
1.22625e-14
8.72664e-06
-5.3763e-15
9.42478e-06
4.4541e-15
1.01229e-05
-1.43074e-14
1.0821e-05
-7.32803e-15
1.15192e-05
7.03748e-15
1.22173e-05
2.39927e-14
1.29154e-05
-7.55907e-15
1.36136e-05
9.79487e-15
1.43117e-05
-1.62414e-14
1.50098e-05
4.02892e-14
1.5708e-05
1.44393e-14
1.64061e-05
-1.3711e-14
1.71042e-05
-7.90558e-15
1.78024e-05
-3.92536e-14
1.85005e-05
4.27482e-14
1.91986e-05
-8.85877e-15
1.98967e-05
2.05949e-05
5.98536e-15
4.53785e-06
2.1847e-16
5.23599e-06
-6.43632e-15
5.93412e-06
6.06288e-15
6.63225e-06
-2.09401e-15
7.33038e-06
1.61756e-14
8.02851e-06
-1.88333e-14
8.72664e-06
-2.35218e-15
9.42478e-06
9.16967e-15
1.01229e-05
-4.71332e-15
1.0821e-05
2.16243e-14
1.15192e-05
-2.96491e-14
1.22173e-05
-9.2946e-15
1.29154e-05
-1.89098e-14
1.36136e-05
4.46502e-15
1.43117e-05
3.01517e-14
1.50098e-05
-2.6224e-14
1.5708e-05
4.29269e-16
1.64061e-05
-2.11771e-14
1.71042e-05
1.87055e-14
1.78024e-05
-3.9266e-15
1.85005e-05
-2.9161e-14
1.91986e-05
1.5224e-14
1.98967e-05
2.05949e-05
6.7148e-15
4.53785e-06
-7.30712e-15
5.23599e-06
1.11002e-14
5.93412e-06
-4.24162e-15
6.63225e-06
1.51012e-14
7.33038e-06
-5.21107e-15
8.02851e-06
1.70119e-14
8.72664e-06
-3.94332e-15
9.42478e-06
-2.96402e-16
1.01229e-05
6.6096e-15
1.0821e-05
1.37016e-14
1.15192e-05
1.01815e-14
1.22173e-05
1.82132e-14
1.29154e-05
1.43646e-14
1.36136e-05
2.33364e-14
1.43117e-05
-2.53497e-14
1.50098e-05
2.90674e-14
1.5708e-05
-7.83528e-15
1.64061e-05
3.54085e-14
1.71042e-05
-4.51951e-15
1.78024e-05
4.23664e-14
1.85005e-05
-5.92006e-16
1.91986e-05
-8.74339e-15
1.98967e-05
2.05949e-05
-4.63087e-15
4.53785e-06
5.79715e-15
5.23599e-06
-1.61517e-14
5.93412e-06
-5.97473e-15
6.63225e-06
-8.55566e-15
7.33038e-06
4.22278e-15
8.02851e-06
-8.18968e-15
8.72664e-06
6.99762e-15
9.42478e-06
-2.42317e-14
1.01229e-05
-7.77091e-15
1.0821e-05
-2.27696e-14
1.15192e-05
8.34642e-15
1.22173e-05
-7.40751e-15
1.29154e-05
2.82625e-14
1.36136e-05
-4.57146e-14
1.43117e-05
-8.22373e-15
1.50098e-05
-2.82338e-14
1.5708e-05
-2.34296e-15
1.64061e-05
-6.95219e-15
1.71042e-05
2.21418e-14
1.78024e-05
-3.41151e-14
1.85005e-05
-3.74742e-15
1.91986e-05
-3.23542e-14
1.98967e-05
2.05949e-05
-8.92543e-15
4.53785e-06
-2.28969e-15
5.23599e-06
-2.22528e-15
5.93412e-06
6.61521e-15
6.63225e-06
-3.38877e-15
7.33038e-06
-3.90854e-15
8.02851e-06
-6.42089e-15
8.72664e-06
-7.15949e-15
9.42478e-06
6.80872e-15
1.01229e-05
6.97907e-15
1.0821e-05
-9.06994e-15
1.15192e-05
6.75612e-15
1.22173e-05
-2.88926e-14
1.29154e-05
-1.22391e-14
1.36136e-05
4.7985e-15
1.43117e-05
2.50254e-14
1.50098e-05
3.85512e-15
1.5708e-05
3.60096e-15
1.64061e-05
-2.0493e-14
1.71042e-05
-2.17676e-14
1.78024e-05
3.46065e-15
1.85005e-05
2.90339e-14
1.91986e-05
-1.66891e-15
1.98967e-05
2.05949e-05
6.21534e-15
4.53785e-06
-3.88008e-15
5.23599e-06
1.54212e-14
5.93412e-06
-7.06615e-15
6.63225e-06
-2.21171e-15
7.33038e-06
1.42825e-15
8.02851e-06
-5.4939e-15
8.72664e-06
1.3225e-14
9.42478e-06
6.04437e-15
1.01229e-05
-1.7453e-14
1.0821e-05
2.08836e-14
1.15192e-05
-2.14481e-14
1.22173e-05
1.91295e-14
1.29154e-05
-7.32067e-15
1.36136e-05
3.84811e-14
1.43117e-05
-1.29271e-14
1.50098e-05
-1.88869e-15
1.5708e-05
5.713e-15
1.64061e-05
-7.59238e-15
1.71042e-05
2.76513e-14
1.78024e-05
1.40926e-14
1.85005e-05
-5.31527e-14
1.91986e-05
3.90807e-14
1.98967e-05
2.05949e-05
-1.49907e-15
4.53785e-06
1.08963e-14
5.23599e-06
-6.59999e-15
5.93412e-06
7.26455e-15
6.63225e-06
6.1736e-15
7.33038e-06
2.48755e-15
8.02851e-06
-9.66243e-16
8.72664e-06
-4.36641e-15
9.42478e-06
-8.90251e-15
1.01229e-05
1.38609e-14
1.0821e-05
1.06879e-14
1.15192e-05
6.24631e-15
1.22173e-05
-1.30469e-16
1.29154e-05
-3.4422e-15
1.36136e-05
-1.10478e-14
1.43117e-05
-1.77709e-14
1.50098e-05
1.76766e-14
1.5708e-05
9.95021e-15
1.64061e-05
3.32092e-15
1.71042e-05
-3.29752e-14
1.78024e-05
-1.04291e-14
1.85005e-05
3.00635e-14
1.91986e-05
-6.00014e-14
1.98967e-05
2.05949e-05
5.16963e-15
4.53785e-06
-7.45633e-15
5.23599e-06
-7.57696e-16
5.93412e-06
6.83861e-15
6.63225e-06
-9.97594e-15
7.33038e-06
-1.66636e-15
8.02851e-06
9.21735e-15
8.72664e-06
-1.34607e-14
9.42478e-06
2.32186e-14
1.01229e-05
1.04703e-14
1.0821e-05
-1.72758e-14
1.15192e-05
-3.03078e-15
1.22173e-05
1.13948e-14
1.29154e-05
-1.98202e-14
1.36136e-05
-4.68399e-15
1.43117e-05
5.03027e-14
1.50098e-05
-2.40509e-14
1.5708e-05
-6.66544e-15
1.64061e-05
1.42559e-14
1.71042e-05
1.64527e-15
1.78024e-05
-6.81678e-15
1.85005e-05
1.44335e-14
1.91986e-05
5.07522e-14
1.98967e-05
2.05949e-05
-6.19789e-15
4.53785e-06
2.79804e-17
5.23599e-06
1.15106e-14
5.93412e-06
-2.06272e-14
6.63225e-06
5.36594e-15
7.33038e-06
1.22004e-15
8.02851e-06
-5.00595e-17
8.72664e-06
1.23915e-14
9.42478e-06
-1.32298e-14
1.01229e-05
-1.88975e-14
1.0821e-05
-4.96717e-15
1.15192e-05
-7.15671e-15
1.22173e-05
-1.48891e-14
1.29154e-05
3.53338e-14
1.36136e-05
-5.55242e-18
1.43117e-05
-4.3142e-14
1.50098e-05
1.35558e-14
1.5708e-05
-2.82641e-14
1.64061e-05
2.44843e-15
1.71042e-05
-1.02461e-14
1.78024e-05
2.37985e-14
1.85005e-05
1.38643e-14
1.91986e-05
-4.55721e-14
1.98967e-05
2.05949e-05
-1.90735e-15
4.53785e-06
1.12996e-15
5.23599e-06
-2.16626e-14
5.93412e-06
9.62304e-15
6.63225e-06
1.51357e-14
7.33038e-06
-1.40666e-14
8.02851e-06
8.09115e-15
8.72664e-06
-2.69621e-14
9.42478e-06
-1.96798e-15
1.01229e-05
2.97131e-14
1.0821e-05
-1.17485e-14
1.15192e-05
1.98637e-14
1.22173e-05
-2.74486e-14
1.29154e-05
-2.06187e-14
1.36136e-05
1.60376e-14
1.43117e-05
-4.61809e-15
1.50098e-05
4.68711e-15
1.5708e-05
4.79603e-14
1.64061e-05
-1.37476e-14
1.71042e-05
3.23646e-14
1.78024e-05
-3.51971e-14
1.85005e-05
-2.49146e-14
1.91986e-05
7.19018e-14
1.98967e-05
2.05949e-05
1.90616e-15
4.53785e-06
-1.13136e-15
5.23599e-06
2.1661e-14
5.93412e-06
-9.62491e-15
6.63225e-06
-1.51381e-14
7.33038e-06
1.4064e-14
8.02851e-06
-8.09534e-15
8.72664e-06
2.69578e-14
9.42478e-06
1.96334e-15
1.01229e-05
-2.97202e-14
1.0821e-05
1.17403e-14
1.15192e-05
-1.98703e-14
1.22173e-05
2.7441e-14
1.29154e-05
2.06132e-14
1.36136e-05
-1.60455e-14
1.43117e-05
4.60819e-15
1.50098e-05
-4.69712e-15
1.5708e-05
-4.79721e-14
1.64061e-05
1.3729e-14
1.71042e-05
-3.23814e-14
1.78024e-05
3.51731e-14
1.85005e-05
2.48966e-14
1.91986e-05
-7.19251e-14
1.98967e-05
2.05949e-05
6.19662e-15
4.53785e-06
-2.90894e-17
5.23599e-06
-1.15128e-14
5.93412e-06
2.06247e-14
6.63225e-06
-5.36821e-15
7.33038e-06
-1.22342e-15
8.02851e-06
4.51703e-17
8.72664e-06
-1.2396e-14
9.42478e-06
1.32243e-14
1.01229e-05
1.88907e-14
1.0821e-05
4.96205e-15
1.15192e-05
7.14932e-15
1.22173e-05
1.48823e-14
1.29154e-05
-3.53414e-14
1.36136e-05
-4.37079e-18
1.43117e-05
4.31317e-14
1.50098e-05
-1.35666e-14
1.5708e-05
2.8249e-14
1.64061e-05
-2.46069e-15
1.71042e-05
1.02307e-14
1.78024e-05
-2.38134e-14
1.85005e-05
-1.38849e-14
1.91986e-05
4.5556e-14
1.98967e-05
2.05949e-05
-5.17073e-15
4.53785e-06
7.45462e-15
5.23599e-06
7.55777e-16
5.93412e-06
-6.84044e-15
6.63225e-06
9.97288e-15
7.33038e-06
1.66324e-15
8.02851e-06
-9.22033e-15
8.72664e-06
1.34568e-14
9.42478e-06
-2.32232e-14
1.01229e-05
-1.04767e-14
1.0821e-05
1.72688e-14
1.15192e-05
3.02311e-15
1.22173e-05
-1.1401e-14
1.29154e-05
1.98134e-14
1.36136e-05
4.67224e-15
1.43117e-05
-5.03112e-14
1.50098e-05
2.40402e-14
1.5708e-05