/*--------------------------------*- C++ -*----------------------------------*\
  =========                 |
  \\      /  F ield         | OpenFOAM: The Open Source CFD Toolbox
   \\    /   O peration     | Website:  https://openfoam.org
    \\  /    A nd           | Version:  11
     \\/     M anipulation  |
\*---------------------------------------------------------------------------*/
FoamFile
{
    format      ascii;
    class       volVectorField;
    location    "0.48";
    object      U;
}
// * * * * * * * * * * * * * * * * * * * * * * * * * * * * * * * * * * * * * //

dimensions      [0 1 -1 0 0 0 0];

internalField   nonuniform List<vector> 
2880
(
(-0.0423288 0.0458568 3.86761e-19)
(-0.167503 0.0926955 4.88305e-23)
(-0.320285 0.126857 1.27697e-20)
(-0.40232 0.140636 -4.06512e-20)
(-0.404953 0.138432 1.64089e-20)
(-0.317559 0.0946872 0)
(-0.0866361 0.0828062 0)
(-0.234736 0.13345 -1.61258e-20)
(-0.343533 0.158267 0)
(-0.384325 0.160671 9.66588e-21)
(-0.387373 0.151309 0)
(-0.323013 0.0932379 0)
(-0.106091 0.104902 0)
(-0.242401 0.159471 1.52614e-20)
(-0.330679 0.172825 5.73074e-21)
(-0.360689 0.166921 -1.37712e-20)
(-0.361656 0.142964 -5.94901e-20)
(-0.324914 0.0763701 4.85753e-20)
(-0.123485 0.125761 8.16912e-21)
(-0.241501 0.181903 -7.08302e-21)
(-0.314927 0.187915 1.53768e-19)
(-0.341038 0.17349 1.58513e-19)
(-0.341385 0.140231 2.84049e-20)
(-0.321721 0.0719242 1.44738e-21)
(-0.142739 0.146738 -7.88605e-21)
(-0.240831 0.201119 0)
(-0.301419 0.202385 -1.67372e-19)
(-0.323335 0.182038 -1.35042e-19)
(-0.325022 0.143127 -2.78941e-20)
(-0.316095 0.076475 -1.70417e-19)
(-0.162158 0.163535 0)
(-0.241622 0.21607 2.61574e-20)
(-0.289352 0.215799 -2.01573e-20)
(-0.307316 0.191955 0)
(-0.310436 0.150482 0)
(-0.308258 0.0869378 1.9288e-19)
(-0.177494 0.183766 0)
(-0.24171 0.227569 0)
(-0.277946 0.228106 0)
(-0.292359 0.203069 5.2364e-19)
(-0.296239 0.161457 0)
(-0.297793 0.101988 0)
(-0.185399 0.202976 1.34637e-18)
(-0.239372 0.236963 -7.91606e-19)
(-0.266628 0.239576 -5.81157e-19)
(-0.277893 0.215285 -4.82589e-19)
(-0.2816 0.175351 4.47335e-22)
(-0.284364 0.120481 -5.07673e-20)
(-0.190699 0.215296 -1.32308e-18)
(-0.234991 0.245085 1.60031e-18)
(-0.255139 0.250484 1.18213e-18)
(-0.26349 0.228441 5.19849e-19)
(-0.266029 0.191525 -3.45401e-19)
(-0.267826 0.141619 3.17934e-19)
(-0.194602 0.225776 0)
(-0.228834 0.252263 -1.53733e-18)
(-0.24339 0.261034 -6.0481e-19)
(-0.248856 0.242305 4.42025e-21)
(-0.249287 0.20936 4.61551e-19)
(-0.248223 0.164681 -4.25121e-19)
(-0.196977 0.233904 0)
(-0.221146 0.258668 7.1738e-19)
(-0.231183 0.271358 3.75772e-20)
(-0.233826 0.256625 -5.21179e-19)
(-0.231361 0.228248 -5.94132e-19)
(-0.225824 0.188897 -4.45124e-19)
(-0.197422 0.239154 0)
(-0.212068 0.264401 -4.85336e-20)
(-0.218422 0.281538 3.76652e-20)
(-0.218383 0.271162 -4.6293e-19)
(-0.21246 0.247594 4.1863e-19)
(-0.201182 0.213408 1.01309e-18)
(-0.195482 0.241445 0)
(-0.201709 0.269565 8.23888e-19)
(-0.205105 0.291595 -1.15289e-19)
(-0.202652 0.285695 6.65328e-19)
(-0.193013 0.266836 -5.49623e-19)
(-0.175164 0.237299 -8.00829e-19)
(-0.190852 0.241002 0)
(-0.190094 0.274185 -1.61879e-18)
(-0.191306 0.301562 -4.00706e-20)
(-0.186869 0.300013 -4.73139e-19)
(-0.173661 0.285471 3.67907e-19)
(-0.14892 0.25965 1.16565e-18)
(-0.183413 0.238346 -1.38606e-18)
(-0.17728 0.278216 -4.94979e-20)
(-0.177187 0.311433 3.86529e-20)
(-0.171337 0.314007 5.45221e-19)
(-0.155177 0.30307 -3.74524e-19)
(-0.123872 0.279657 -5.88418e-19)
(-0.172858 0.235737 1.38682e-18)
(-0.163558 0.281733 8.14457e-19)
(-0.162906 0.321117 0)
(-0.156504 0.32758 0)
(-0.13838 0.319384 5.06468e-19)
(-0.101659 0.296854 -1.20841e-19)
(-0.151854 0.23882 4.25403e-20)
(-0.149679 0.284475 8.01966e-19)
(-0.148766 0.330318 8.22757e-20)
(-0.142769 0.340582 4.93e-19)
(-0.124075 0.334422 -5.12199e-19)
(-0.0840629 0.311233 -4.79928e-19)
(-0.124143 0.237602 1.98778e-20)
(-0.137042 0.284563 -1.68152e-18)
(-0.135032 0.338236 0)
(-0.130414 0.352773 -1.21532e-18)
(-0.112876 0.348512 5.82649e-19)
(-0.0726551 0.323101 3.64097e-19)
(-0.108656 0.223326 -1.12697e-18)
(-0.126092 0.279947 9.01921e-19)
(-0.121553 0.343838 6.37822e-19)
(-0.119451 0.363835 1.16713e-18)
(-0.10498 0.362346 1.3228e-19)
(-0.0692542 0.332536 -6.09541e-19)
(-0.0954337 0.202762 1.07139e-18)
(-0.114354 0.271068 5.49982e-20)
(-0.107653 0.346551 -7.42143e-19)
(-0.109665 0.373374 -1.20995e-18)
(-0.0998873 0.377055 5.40387e-19)
(-0.0773311 0.33904 -1.955e-21)
(-0.076968 0.179303 0)
(-0.100717 0.257861 0)
(-0.0926721 0.346221 -4.61293e-20)
(-0.0996762 0.380648 6.65602e-19)
(-0.0972787 0.395655 -4.84291e-19)
(-0.0988027 0.341226 5.65668e-19)
(-0.0621985 0.156527 -5.78793e-19)
(-0.085939 0.240542 -4.67551e-19)
(-0.0766429 0.342809 -4.86783e-20)
(-0.0891214 0.383461 3.69801e-19)
(-0.092393 0.423095 -2.90513e-19)
(-0.121984 0.342819 -2.74528e-19)
(-0.0487409 0.129568 6.72536e-19)
(-0.0698712 0.216497 5.03158e-19)
(-0.06002 0.333992 0)
(-0.0782144 0.374106 -3.48742e-19)
(-0.0796368 0.460936 3.03679e-19)
(-0.125408 0.347149 2.79042e-19)
(-0.0306317 0.065553 0)
(-0.0520778 0.152843 -2.64056e-19)
(-0.0406752 0.292392 0)
(-0.0595747 0.317945 4.69753e-20)
(-0.0508734 0.482077 -3.92982e-20)
(-0.114477 0.30158 5.99805e-20)
(-0.37155 -0.12448 0)
(-0.420691 -0.143982 0)
(-0.422779 -0.135274 0)
(-0.400351 -0.118222 6.00609e-20)
(-0.359568 -0.0968759 -4.81991e-20)
(-0.305761 -0.0727895 0)
(-0.242798 -0.0463777 2.3503e-20)
(-0.174059 -0.0183706 1.84427e-20)
(-0.102431 0.0101267 1.43534e-20)
(-0.0302686 0.0382045 -1.92015e-20)
(0.0405955 0.0650588 1.02128e-20)
(0.108729 0.0900317 1.3188e-20)
(0.173069 0.11261 -8.76086e-21)
(0.232866 0.13239 8.34748e-21)
(0.287656 0.149088 -9.87439e-21)
(0.337226 0.162516 2.2256e-21)
(0.381598 0.172604 6.91442e-21)
(0.420985 0.179377 2.1968e-21)
(0.455751 0.18291 -8.4451e-22)
(0.486392 0.183325 1.72664e-21)
(0.513525 0.180863 0)
(0.537763 0.17598 2.57622e-22)
(0.559176 0.169281 -3.07826e-22)
(0.575415 0.160921 4.55139e-22)
(-0.350493 -0.0977591 0)
(-0.406284 -0.133756 -6.49131e-21)
(-0.416826 -0.138387 3.95157e-22)
(-0.402811 -0.134532 2.63403e-21)
(-0.368704 -0.125228 0)
(-0.321508 -0.111618 1.61104e-21)
(-0.265653 -0.0939378 1.28354e-21)
(-0.20466 -0.0728314 -1.01032e-21)
(-0.141368 -0.0493745 6.44309e-21)
(-0.0779957 -0.0246075 3.88679e-22)
(-0.0160387 0.000543981 1.16969e-20)
(0.0433699 0.0252822 0)
(0.0993981 0.0489197 0)
(0.151466 0.0709208 -2.95122e-21)
(0.199215 0.0908102 2.67465e-21)
(0.242355 0.108083 0)
(0.280829 0.122411 -1.11083e-21)
(0.314823 0.133592 1.11549e-21)
(0.344639 0.141438 -5.05687e-22)
(0.370737 0.145841 7.30438e-23)
(0.39372 0.146808 0)
(0.414105 0.14454 -9.29675e-24)
(0.431436 0.13961 -1.28838e-22)
(0.444059 0.133165 7.5017e-24)
(-0.345023 -0.0717198 -5.57803e-20)
(-0.396501 -0.119678 -6.812e-21)
(-0.408886 -0.137842 0)
(-0.397886 -0.148354 1.16401e-20)
(-0.366143 -0.151837 -4.0471e-20)
(-0.321114 -0.148949 -1.61227e-21)
(-0.26788 -0.139909 -1.28307e-21)
(-0.2103 -0.125385 1.00903e-21)
(-0.151293 -0.106554 -5.75094e-21)
(-0.0930022 -0.0847578 -4.66244e-21)
(-0.0366977 -0.0611459 4.61561e-22)
(0.0167348 -0.0367167 -9.89736e-21)
(0.0667734 -0.0123207 4.53984e-21)
(0.113133 0.0113569 0)
(0.155653 0.033713 1.42211e-22)
(0.194382 0.0542789 1.29109e-21)
(0.229374 0.0724732 -1.23633e-21)
(0.260711 0.0877098 -4.99293e-23)
(0.28861 0.0995342 1.09907e-21)
(0.313357 0.10759 -7.50701e-22)
(0.335254 0.111689 0)
(0.354404 0.111892 9.24877e-24)
(0.370459 0.109102 1.89368e-22)
(0.383985 0.106072 -1.77733e-22)
(-0.341541 -0.049217 -1.12216e-19)
(-0.386763 -0.103909 2.79752e-20)
(-0.398275 -0.136182 0)
(-0.38556 -0.160445 7.98432e-20)
(-0.351859 -0.177089 1.99696e-21)
(-0.304443 -0.185021 2.78437e-20)
(-0.249306 -0.184317 0)
(-0.190874 -0.175832 2.65316e-21)
(-0.132194 -0.160961 3.88025e-20)
(-0.0753229 -0.1415 1.60644e-20)
(-0.0213597 -0.118946 -2.33977e-21)
(0.0291164 -0.0945663 5.1097e-21)
(0.0758641 -0.0693878 -1.25498e-20)
(0.11886 -0.0442865 1.01929e-20)
(0.158186 -0.0200113 8.51133e-21)
(0.194013 0.00278631 -1.79483e-21)
(0.226563 0.0235241 -4.62379e-21)
(0.256067 0.0416671 9.38358e-22)
(0.282731 0.0567366 3.45886e-22)
(0.306764 0.0683815 4.02265e-22)
(0.328272 0.0764391 -3.24124e-22)
(0.347266 0.0811195 -3.8527e-22)
(0.36415 0.0831793 4.37304e-22)
(0.380729 0.0845246 -4.48687e-22)
(-0.336174 -0.0272748 1.28975e-19)
(-0.374862 -0.087634 0)
(-0.382564 -0.132445 0)
(-0.364824 -0.17112 -2.45916e-19)
(-0.324665 -0.201289 -1.34413e-19)
(-0.270183 -0.220041 -4.84136e-20)
(-0.2086 -0.227044 8.95507e-20)
(-0.145181 -0.223624 -8.66011e-20)
(-0.0831814 -0.21165 4.69802e-20)
(-0.0244915 -0.193448 -5.27987e-20)
(0.0300227 -0.171037 -1.28592e-20)
(0.080147 -0.146035 0)
(0.125974 -0.119701 6.4786e-21)
(0.167782 -0.0930379 -4.40806e-21)
(0.205904 -0.0668896 -2.87184e-21)
(0.240698 -0.0419822 3.78906e-21)
(0.27251 -0.018949 -4.57442e-21)
(0.30165 0.00164896 0)
(0.328383 0.0193413 -2.20772e-23)
(0.352856 0.0337839 -2.12794e-21)
(0.375123 0.0448141 2.37438e-21)
(0.395406 0.052668 2.88232e-21)
(0.414851 0.0583306 -2.85966e-21)
(0.436378 0.0634424 4.43677e-22)
(-0.327498 -0.00434351 6.56035e-20)
(-0.358918 -0.0697882 1.20499e-19)
(-0.360541 -0.126796 5.17788e-20)
(-0.333955 -0.180206 1.67307e-19)
(-0.282395 -0.224268 1.99968e-19)
(-0.215677 -0.253652 -5.88718e-20)
(-0.142904 -0.267392 -1.20268e-19)
(-0.070407 -0.267567 9.73533e-20)
(-0.00173729 -0.256961 0)
(0.0614389 -0.23863 3.02033e-20)
(0.118719 -0.215184 -4.8548e-20)
(0.170351 -0.188656 2.71243e-20)
(0.216887 -0.160572 -2.09422e-20)
(0.25901 -0.132027 0)
(0.297402 -0.103908 1.95904e-21)
(0.332676 -0.0769428 0)
(0.365366 -0.0517273 -1.99549e-21)
(0.395915 -0.0287585 -9.99197e-23)
(0.42466 -0.00844353 0)
(0.451831 0.00891011 6.54882e-21)
(0.477511 0.0231772 -1.57227e-21)
(0.501966 0.0345322 0)
(0.526152 0.0437961 0)
(0.554136 0.0520206 0)
(-0.314703 0.0198742 0)
(-0.337911 -0.0499682 -2.39372e-19)
(-0.330743 -0.118674 1.02028e-19)
(-0.290769 -0.187243 -1.77324e-19)
(-0.221886 -0.245621 2.24835e-19)
(-0.136856 -0.285247 0)
(-0.0476763 -0.304408 9.59229e-21)
(0.0380337 -0.306322 7.10542e-20)
(0.116303 -0.294969 0)
(0.185856 -0.274583 5.27024e-21)
(0.247051 -0.248525 4.72355e-20)
(0.300913 -0.219341 -1.44146e-20)
(0.34867 -0.188832 -3.11381e-21)
(0.39152 -0.158164 1.13631e-20)
(0.43056 -0.128192 -1.49661e-21)
(0.466697 -0.0995928 0)
(0.500677 -0.0728727 0)
(0.533088 -0.0484267 2.02472e-21)
(0.564367 -0.0265566 0)
(0.594823 -0.0074729 1.23385e-20)
(0.624547 0.00873451 -1.35246e-20)
(0.653965 0.0222146 6.45195e-21)
(0.683226 0.0337757 -1.60175e-20)
(0.719432 0.0453358 7.07349e-21)
(-0.297267 0.0457267 0)
(-0.310822 -0.0275821 -1.24948e-19)
(-0.291517 -0.107389 5.91256e-21)
(-0.232379 -0.191498 9.85406e-20)
(-0.138748 -0.264428 -1.49862e-19)
(-0.0284593 -0.313355 0)
(0.082111 -0.335697 -8.72064e-20)
(0.183464 -0.336082 -5.56465e-20)
(0.271905 -0.32111 5.18791e-20)
(0.347323 -0.296464 0)
(0.411571 -0.266307 0)
(0.466735 -0.233534 0)
(0.514819 -0.200134 1.15338e-20)
(0.557616 -0.167301 0)
(0.596589 -0.135782 -1.51672e-21)
(0.632908 -0.106122 1.41341e-20)
(0.667466 -0.07868 -9.39901e-21)
(0.700962 -0.0537199 -7.29229e-21)
(0.733899 -0.031421 -1.4731e-20)
(0.766645 -0.011862 1.82969e-20)
(0.799101 0.00493318 6.68176e-21)
(0.832138 0.0192195 2.64728e-21)
(0.863625 0.0313549 8.51812e-21)
(0.907939 0.0462614 -8.26423e-21)
(-0.274832 0.0733609 0)
(-0.276679 -0.00217402 -5.41588e-19)
(-0.241013 -0.0922508 0)
(-0.15521 -0.191954 0)
(-0.0278653 -0.278986 0)
(0.114259 -0.334861 0)
(0.248377 -0.356493 0)
(0.364341 -0.352203 -5.59811e-20)
(0.460672 -0.331176 1.40198e-19)
(0.53953 -0.300368 0)
(0.604304 -0.264908 0)
(0.658313 -0.228087 0)
(0.704485 -0.191805 -1.16885e-20)
(0.745184 -0.157129 0)
(0.782254 -0.124686 2.71242e-21)
(0.817084 -0.0948022 -9.01169e-21)
(0.850577 -0.0676246 0)
(0.88355 -0.0432472 1.46189e-20)
(0.916468 -0.0217324 -7.53561e-21)
(0.949664 -0.00296354 -7.47948e-21)
(0.982531 0.0129204 -6.76253e-21)
(1.01744 0.0267916 -1.05582e-20)
(1.04701 0.0365393 1.01936e-20)
(1.10127 0.0536053 -5.41212e-22)
(-0.247252 0.102645 0)
(-0.234684 0.0264085 5.48616e-19)
(-0.177147 -0.0727287 1.21937e-19)
(-0.0544257 -0.187293 -1.11442e-19)
(0.117344 -0.286042 0)
(0.296109 -0.344632 -2.6703e-19)
(0.452881 -0.361829 0)
(0.580141 -0.350056 0)
(0.679633 -0.320841 -1.36265e-20)
(0.756598 -0.283045 -1.17539e-20)
(0.816727 -0.242439 0)
(0.865023 -0.202283 3.79113e-20)
(0.905321 -0.164245 -1.50904e-20)
(0.940457 -0.129109 -4.37712e-21)
(0.97274 -0.0971997 -1.68406e-21)
(1.0035 -0.0686904 1.88794e-20)
(1.03382 -0.0436221 -1.02061e-20)
(1.06501 -0.0217309 -9.76441e-22)
(1.09602 -0.00288651 9.17388e-22)
(1.1264 0.0132898 -6.57681e-21)
(1.15489 0.0262944 -1.91758e-20)
(1.18377 0.0382381 1.81149e-20)
(1.20364 0.0436945 -1.90709e-20)
(1.25006 0.0601124 1.3539e-20)
(-0.214705 0.133081 -8.10276e-20)
(-0.184397 0.0577714 1.4415e-19)
(-0.097654 -0.0489367 -6.72283e-19)
(0.0761408 -0.176075 3.33072e-19)
(0.30349 -0.281107 -5.71185e-19)
(0.519576 -0.33716 2.70509e-19)
(0.692859 -0.347023 -2.01123e-19)
(0.820785 -0.326485 -1.18567e-19)
(0.911959 -0.289969 1.55277e-20)
(0.976655 -0.247 -7.19043e-20)
(1.02357 -0.203566 -4.80598e-20)
(1.05917 -0.162672 -4.76014e-20)
(1.08791 -0.125684 -3.33697e-20)
(1.11333 -0.0929339 2.93884e-20)
(1.13753 -0.0641758 -2.20905e-21)
(1.16007 -0.0393778 -2.31031e-21)
(1.18116 -0.0184409 3.45521e-21)
(1.19983 -0.00117829 -1.11804e-20)
(1.21656 0.0131236 6.67345e-21)
(1.23149 0.0250661 1.21714e-20)
(1.24483 0.0342427 2.80002e-20)
(1.25722 0.0425679 -2.15824e-20)
(1.26734 0.0449268 0)
(1.29802 0.0590579 -6.58881e-22)
(-0.177868 0.163777 -7.27048e-19)
(-0.126174 0.0906566 0)
(-8.07215e-05 -0.0228199 5.48829e-19)
(0.24202 -0.15648 -2.25873e-19)
(0.52969 -0.260134 4.09848e-19)
(0.772594 -0.309577 -1.29633e-19)
(0.942712 -0.310669 4.1061e-19)
(1.05116 -0.284534 -1.24361e-19)
(1.11811 -0.245538 2.1113e-19)
(1.15889 -0.202734 7.40618e-21)
(1.18423 -0.161566 5.25369e-20)
(1.20102 -0.124481 2.8575e-21)
(1.21367 -0.092253 1.00442e-20)
(1.22438 -0.0648166 4.60227e-21)
(1.23266 -0.0419324 1.42965e-20)
(1.24014 -0.0226188 9.23702e-22)
(1.24745 -0.00641185 -1.16069e-20)
(1.25412 0.00675572 1.0674e-20)
(1.26012 0.0172984 -4.24432e-21)
(1.26571 0.0258128 -6.91734e-22)
(1.27127 0.0321008 5.20011e-21)
(1.27682 0.0371643 3.23978e-22)
(1.28242 0.0391381 5.50262e-21)
(1.30388 0.0535943 1.30401e-20)
(-0.138024 0.193471 1.23493e-18)
(-0.0617556 0.122223 0)
(0.117189 0.00329562 -1.41074e-19)
(0.442818 -0.127367 1.2864e-19)
(0.778347 -0.221107 -5.74986e-19)
(1.02125 -0.261896 3.25717e-19)
(1.15937 -0.257472 -6.28914e-20)
(1.23057 -0.231994 3.18514e-19)
(1.26417 -0.197572 0)
(1.27725 -0.161016 -7.10325e-20)
(1.28039 -0.126954 -8.96031e-20)
(1.27962 -0.0968862 6.51354e-20)
(1.27792 -0.0709701 -4.68565e-20)
(1.27571 -0.0491715 0)
(1.27412 -0.0310273 7.24861e-21)
(1.27323 -0.0161339 0)
(1.27328 -0.00379207 -3.0972e-21)
(1.27345 0.00604142 2.91048e-21)
(1.27364 0.013722 1.25578e-20)
(1.27465 0.0200633 7.13224e-21)
(1.27652 0.0242797 -4.70223e-20)
(1.27801 0.025991 4.66925e-20)
(1.27912 0.0290074 -4.77707e-20)
(1.28748 0.0436922 1.90607e-20)
(-0.0969724 0.2205 -9.21229e-19)
(0.00701005 0.148714 7.97496e-19)
(0.255796 0.0292264 0)
(0.669185 -0.0878414 0)
(1.02202 -0.16657 3.9747e-19)
(1.2293 -0.199153 4.19113e-19)
(1.31902 -0.194963 -1.44978e-19)
(1.35134 -0.175122 -1.88391e-19)
(1.35595 -0.149122 -1.79884e-20)
(1.3474 -0.121295 -7.79478e-22)
(1.33463 -0.0957382 4.86507e-20)
(1.32192 -0.0733095 0)
(1.31069 -0.0540235 -1.61255e-20)
(1.30154 -0.0375915 -1.33948e-21)
(1.29428 -0.0238433 1.06589e-20)
(1.28854 -0.0125574 1.81628e-20)
(1.28344 -0.00321664 -5.41303e-21)
(1.27931 0.00445594 -6.2156e-21)
(1.27631 0.0104939 1.51946e-21)
(1.27433 0.0140048 0)
(1.27134 0.0162848 2.49594e-20)
(1.26655 0.0178554 -5.78911e-20)
(1.2598 0.022153 2.00013e-20)
(1.25534 0.0382238 3.84416e-21)
(-0.0568103 0.242996 0)
(0.0798104 0.166566 -4.83923e-19)
(0.421014 0.0570824 4.37383e-19)
(0.903218 -0.0351029 0)
(1.23286 -0.0994201 0)
(1.38288 -0.129014 -4.1471e-19)
(1.42674 -0.127982 -6.30351e-20)
(1.42972 -0.114883 1.63639e-19)
(1.4148 -0.0993888 -1.00649e-19)
(1.3911 -0.0804032 9.16571e-21)
(1.3683 -0.0631418 5.80082e-20)
(1.34821 -0.047999 0)
(1.33129 -0.0349355 0)
(1.31728 -0.0237816 -8.59582e-21)
(1.30568 -0.0143583 3.25302e-20)
(1.29602 -0.00653125 -1.43581e-20)
(1.28764 -0.000327509 0)
(1.2806 0.00476458 6.21873e-21)
(1.27446 0.00844986 -2.926e-21)
(1.2676 0.0111436 -2.54525e-20)
(1.25936 0.0129303 -4.7505e-21)
(1.24914 0.0145292 2.77032e-20)
(1.23714 0.0197198 0)
(1.22274 0.0376081 0)
(-0.0200087 0.258896 8.38664e-20)
(0.160819 0.174006 1.61322e-19)
(0.618987 0.0932454 -3.04192e-19)
(1.12341 0.0286072 5.95498e-19)
(1.39402 -0.0244623 0)
(1.48514 -0.0560965 -1.18783e-19)
(1.49307 -0.0597772 1.06019e-19)
(1.47885 -0.0572738 1.25446e-19)
(1.4474 -0.0497943 0)
(1.41428 -0.0405107 6.39428e-20)
(1.38568 -0.0311799 0)
(1.36156 -0.0226133 -2.99629e-20)
(1.34137 -0.0150275 3.44859e-20)
(1.3245 -0.00846908 -1.2731e-20)
(1.31026 -0.00292201 -2.603e-20)
(1.29803 0.00166655 6.6454e-22)
(1.2873 0.0053402 4.82231e-21)
(1.27738 0.00813023 8.02738e-21)
(1.2675 0.0102559 -9.46557e-21)
(1.257 0.0118161 -8.15812e-21)
(1.24503 0.0129935 -3.5117e-20)
(1.23076 0.0147701 -7.22419e-21)
(1.2143 0.0213158 2.68815e-20)
(1.19357 0.0391545 0)
(0.0115136 0.264922 6.78637e-19)
(0.25905 0.176069 -6.29561e-19)
(0.844571 0.145997 -2.63809e-20)
(1.30908 0.100012 -9.07712e-19)
(1.50352 0.0510285 3.23341e-19)
(1.54363 0.0150194 -1.05683e-19)
(1.53255 0.00377766 9.61824e-20)
(1.49922 -0.00236189 -2.3449e-19)
(1.45798 -0.00428309 1.75792e-19)
(1.42193 -0.00334203 -7.75332e-20)
(1.39135 -0.00105388 0)
(1.36557 0.00171993 4.6246e-21)
(1.34383 0.00450876 0)
(1.32537 0.00706483 1.41191e-20)
(1.30949 0.00925199 -1.55307e-20)
(1.29548 0.0110202 0)
(1.28267 0.0123816 -9.83501e-21)
(1.27043 0.0133748 2.34504e-20)
(1.25816 0.0140969 -3.06299e-20)
(1.2451 0.014736 2.43459e-20)
(1.23024 0.0154892 0)
(1.21268 0.0174612 0)
(1.19262 0.0249549 6.41128e-20)
(1.16752 0.042317 -5.17529e-20)
(0.0393561 0.25761 -6.01889e-19)
(0.391225 0.1907 6.36612e-19)
(1.07067 0.215909 -5.49673e-19)
(1.44459 0.175462 6.43985e-19)
(1.56556 0.122821 1.35282e-19)
(1.57288 0.0844841 2.96662e-19)
(1.54243 0.061805 -2.01746e-20)
(1.49794 0.0462783 -6.1993e-20)
(1.4567 0.0368964 0)
(1.42059 0.0312946 -1.12856e-20)
(1.38979 0.0279517 -4.14298e-20)
(1.36367 0.0259045 4.32298e-20)
(1.3414 0.0245832 9.65873e-21)
(1.3222 0.0236424 9.01707e-21)
(1.30533 0.0228666 -3.52194e-21)
(1.2901 0.0221348 0)
(1.27587 0.0214077 0)
(1.26201 0.0207232 -1.97009e-20)
(1.2479 0.0201906 1.86925e-20)
(1.23277 0.0199302 -2.44146e-20)
(1.21559 0.0201152 2.32569e-20)
(1.19559 0.0219475 5.93733e-20)
(1.17303 0.029757 -5.68622e-20)
(1.14525 0.0464504 0)
(0.0721465 0.238556 0)
(0.588899 0.243487 1.42811e-19)
(1.2551 0.294958 -5.97597e-19)
(1.52822 0.248371 -5.62728e-19)
(1.59112 0.189268 -1.60288e-20)
(1.57443 0.144844 -3.06814e-19)
(1.53193 0.112987 0)
(1.48794 0.0908736 0)
(1.44754 0.0750995 5.28072e-20)
(1.4124 0.0637273 2.04296e-20)
(1.38239 0.0554071 -3.20808e-20)
(1.35677 0.0491514 -1.8411e-20)
(1.3347 0.0442793 7.78455e-22)
(1.31538 0.0403352 -2.95924e-21)
(1.29809 0.0370204 0)
(1.28218 0.0341537 1.85004e-20)
(1.26701 0.0316498 -4.05343e-20)
(1.25201 0.0295075 3.59559e-20)
(1.23658 0.0278089 -1.5308e-20)
(1.21995 0.0266403 0)
(1.20113 0.0261299 1.51373e-20)
(1.17947 0.0275123 -3.03381e-20)
(1.15522 0.0350971 -1.97936e-20)
(1.12567 0.0506619 -3.58348e-20)
(0.126153 0.21101 0)
(0.834143 0.335808 1.31598e-19)
(1.39171 0.374771 -6.20974e-20)
(1.56796 0.31479 0)
(1.58832 0.248736 0)
(1.55625 0.19702 2.02882e-19)
(1.51273 0.159093 -6.09388e-20)
(1.46987 0.130795 6.0512e-20)
(1.43166 0.109476 3.25464e-22)
(1.39866 0.0932964 -7.05723e-20)
(1.37036 0.0808361 2.24786e-20)
(1.34596 0.0710274 -2.15368e-20)
(1.32464 0.0631084 0)
(1.30566 0.0565514 0)
(1.28838 0.0510006 -1.24226e-20)
(1.27218 0.04623 0)
(1.2565 0.042118 3.11569e-20)
(1.2408 0.0386331 -2.53484e-20)
(1.22448 0.0358236 1.50531e-20)
(1.20684 0.0337308 0)
(1.18693 0.0324195 -1.61665e-21)
(1.16418 0.0331197 3.6045e-20)
(1.13878 0.0401321 6.03732e-20)
(1.1082 0.0542864 -4.32731e-20)
(0.225361 0.200188 -3.15385e-19)
(1.07686 0.45052 1.75187e-19)
(1.47261 0.450023 4.13356e-19)
(1.57034 0.373729 -5.8933e-20)
(1.56445 0.300439 -5.17097e-20)
(1.5275 0.242877 -1.3435e-19)
(1.48509 0.199014 3.31408e-20)
(1.44561 0.16555 -6.93601e-20)
(1.4109 0.139847 1.88004e-20)
(1.38086 0.119892 -1.0955e-20)
(1.35485 0.104153 1.15149e-21)
(1.33211 0.0914901 -1.51038e-21)
(1.31192 0.0810805 5.96338e-21)
(1.29364 0.0723427 0)
(1.27668 0.064878 4.62703e-21)
(1.26053 0.0584271 2.59262e-20)
(1.24467 0.0528419 -5.07501e-20)
(1.22861 0.0480688 6.18433e-20)
(1.2118 0.0441278 -3.96566e-20)
(1.19355 0.0410224 0)
(1.17302 0.0387594 3.6097e-20)
(1.14968 0.0385591 -7.07132e-21)
(1.12366 0.0447515 -1.04518e-19)
(1.09276 0.0574583 7.87379e-20)
(0.406601 0.308871 3.10876e-19)
(1.24897 0.573404 -4.47013e-19)
(1.49737 0.518746 -6.75298e-20)
(1.54493 0.425135 1.33745e-19)
(1.52668 0.344499 -3.87163e-20)
(1.49002 0.281176 0)
(1.452 0.232673 -1.98038e-21)
(1.4173 0.195344 1.8887e-20)
(1.38677 0.166306 6.6446e-21)
(1.36011 0.143424 -1.57882e-21)
(1.33672 0.125102 -4.43773e-21)
(1.31592 0.11016 4.15043e-21)
(1.2971 0.0977363 -5.87276e-21)
(1.27975 0.0872154 0)
(1.26337 0.0781638 1.3521e-20)
(1.24751 0.0702899 5.36366e-21)
(1.23175 0.0634166 1.26738e-20)
(1.21562 0.057466 -2.34328e-20)
(1.19863 0.0524297 -1.34368e-20)
(1.18016 0.0482773 0)
(1.15943 0.0449668 1.84331e-21)
(1.13593 0.0437029 1.17547e-20)
(1.10976 0.0488808 -1.67712e-21)
(1.07905 0.0601675 -2.86893e-20)
(0.714038 0.563481 0)
(1.31506 0.679522 2.0104e-19)
(1.47521 0.575468 0)
(1.49948 0.467142 8.31761e-20)
(1.47903 0.37954 0)
(1.44741 0.311968 -9.06026e-21)
(1.41545 0.26023 -4.97176e-21)
(1.38622 0.220191 -1.28512e-21)
(1.36024 0.188782 -8.32639e-21)
(1.33721 0.163773 6.83305e-21)
(1.31661 0.143522 9.76524e-21)
(1.29792 0.126828 -9.13414e-21)
(1.28066 0.112817 1.40155e-20)
(1.26441 0.100857 0)
(1.24878 0.0904971 -1.52602e-20)
(1.23342 0.0814212 -1.26355e-20)
(1.21796 0.0734274 4.51621e-20)
(1.202 0.066413 -2.80694e-20)
(1.1851 0.0603409 2.88903e-20)
(1.16671 0.0551446 0)
(1.14614 0.050747 -1.321e-20)
(1.12285 0.0483201 0)
(1.09689 0.052351 7.35711e-20)
(1.06681 0.0623715 -6.41755e-20)
(0.957388 0.839531 -3.67277e-20)
(1.31121 0.760226 0)
(1.42156 0.614224 6.07284e-21)
(1.44036 0.495991 1.08173e-20)
(1.42591 0.404724 0)
(1.40189 0.335031 0)
(1.37689 0.281624 -8.97593e-21)
(1.3535 0.240106 1.26613e-21)
(1.33221 0.207287 -1.2571e-21)
(1.31287 0.180904 -1.67037e-20)
(1.29513 0.159323 0)
(1.27862 0.141363 -1.60349e-20)
(1.26301 0.126161 1.23234e-21)
(1.24798 0.113089 -1.70383e-20)
(1.23325 0.101688 3.1194e-20)
(1.21853 0.0916274 1.72719e-20)
(1.20352 0.0826842 2.47208e-21)
(1.18791 0.0747305 -4.18009e-20)
(1.17131 0.0677035 -5.80044e-20)
(1.15326 0.061498 4.09459e-20)
(1.13313 0.0560072 0)
(1.11038 0.0523593 -4.24026e-20)
(1.08494 0.0551124 -4.14309e-22)
(1.05593 0.0641982 9.32375e-21)
(-0.0556944 -0.0679883 -3.0354e-20)
(-0.0626133 -0.0898014 -5.17686e-22)
(-0.0441076 -0.000649986 -1.81706e-20)
(-0.0297728 0.202313 5.75236e-20)
(0.0911728 0.372553 1.74026e-20)
(0.169846 0.957076 8.75238e-20)
(-0.0699234 -0.0838027 0)
(-0.0476665 -0.0632315 2.06071e-20)
(-0.00131989 0.049511 0)
(0.0451325 0.246501 -1.29142e-20)
(0.15261 0.452697 0)
(0.339166 0.793157 0)
(-0.0745749 -0.0827668 0)
(-0.0295947 -0.0360561 -1.9016e-20)
(0.040959 0.0840195 -7.32741e-21)
(0.118535 0.269961 1.82139e-20)
(0.262826 0.479563 7.46489e-20)
(0.459014 0.735641 -5.56258e-20)
(-0.0791946 -0.0793456 -1.39735e-20)
(-0.0110025 -0.013671 8.8505e-21)
(0.0808276 0.109958 -1.93457e-19)
(0.185585 0.285387 -2.04956e-19)
(0.347093 0.485309 -3.93581e-20)
(0.542986 0.68719 1.28378e-21)
(-0.0852728 -0.0710483 1.38208e-20)
(0.00676946 0.00466826 0)
(0.116918 0.129719 2.14974e-19)
(0.24403 0.295768 1.79147e-19)
(0.414939 0.480865 3.40107e-20)
(0.603563 0.639442 1.96416e-19)
(-0.0876578 -0.0635369 0)
(0.0228238 0.0192716 -3.30166e-20)
(0.148416 0.144088 2.64057e-20)
(0.293083 0.302183 0)
(0.468778 0.470177 0)
(0.643871 0.596266 -2.26691e-19)
(-0.0888273 -0.0579986 0)
(0.0366736 0.0300891 0)
(0.175137 0.153632 0)
(0.333385 0.304672 -7.06473e-19)
(0.510242 0.45586 0)
(0.670775 0.557064 0)
(-0.0891527 -0.0547674 -1.74489e-18)
(0.048145 0.0372751 1.03598e-18)
(0.197144 0.158862 7.84192e-19)
(0.365767 0.30314 6.69645e-19)
(0.541268 0.439574 5.44331e-21)
(0.68804 0.521513 6.19174e-20)
(-0.0886415 -0.0537222 1.69271e-18)
(0.0571319 0.0411506 -2.13302e-18)
(0.2145 0.160217 -1.62737e-18)
(0.39099 0.297915 -7.15568e-19)
(0.563856 0.421939 4.52013e-19)
(0.698234 0.489322 -3.54045e-19)
(-0.0876638 -0.0543982 0)
(0.0635468 0.042158 2.07134e-18)
(0.227272 0.158114 8.45561e-19)
(0.409673 0.289532 -7.87084e-23)
(0.579457 0.403368 -5.94719e-19)
(0.703265 0.459799 4.76354e-19)
(-0.0862523 -0.056616 0)
(0.0673171 0.0407776 -9.75488e-19)
(0.235496 0.152973 -5.33968e-20)
(0.422245 0.278468 7.24416e-19)
(0.589119 0.384117 7.42925e-19)
(0.704531 0.432325 4.74794e-19)
(-0.0847303 -0.0599436 0)
(0.0683277 0.0374412 6.52393e-20)
(0.239131 0.145186 -5.37771e-20)
(0.429091 0.265127 6.39786e-19)
(0.59386 0.36426 -5.21487e-19)
(0.70274 0.406288 -1.08463e-18)
(-0.0833628 -0.0637596 0)
(0.0664269 0.0325262 -1.11983e-18)
(0.238076 0.135013 1.61478e-19)
(0.430526 0.249603 -9.14134e-19)
(0.594308 0.343878 6.80118e-19)
(0.698366 0.381227 8.54964e-19)
(-0.0824266 -0.0674828 0)
(0.0614973 0.0263789 2.19673e-18)
(0.232268 0.122679 5.37084e-20)
(0.426595 0.231892 6.44963e-19)
(0.590648 0.322722 -4.56356e-19)
(0.691876 0.356736 -1.22372e-18)
(-0.0822158 -0.0705302 1.76895e-18)
(0.053432 0.0192884 6.64573e-20)
(0.221573 0.108329 -5.50523e-20)
(0.417213 0.211923 -7.41135e-19)
(0.583023 0.300458 4.6324e-19)
(0.683521 0.332325 6.17383e-19)
(-0.0830758 -0.072377 -1.77437e-18)
(0.0421593 0.0114923 -1.09312e-18)
(0.205838 0.0920785 0)
(0.402151 0.189508 0)
(0.571357 0.276621 -6.14246e-19)
(0.673466 0.307427 1.21104e-19)
(-0.0853981 -0.0725726 -5.47343e-20)
(0.027654 0.00314274 -1.0752e-18)
(0.184893 0.0740293 -1.12188e-19)
(0.380956 0.164435 -6.61898e-19)
(0.555318 0.250583 6.26272e-19)
(0.661813 0.281375 5.03316e-19)
(-0.0899798 -0.0709404 -2.7454e-20)
(0.0101049 -0.00569385 2.25932e-18)
(0.158588 0.0543322 0)
(0.352965 0.136451 1.62279e-18)
(0.53429 0.221534 -7.12316e-19)
(0.648649 0.25336 -3.8151e-19)
(-0.0965076 -0.0644247 1.63717e-18)
(-0.00982864 -0.0150552 -1.22322e-18)
(0.12683 0.0332187 -8.71661e-19)
(0.317333 0.105295 -1.54905e-18)
(0.5073 0.188464 -1.57671e-19)
(0.634082 0.222475 6.46072e-19)
(-0.0976043 -0.0595423 -1.43897e-18)
(-0.0307938 -0.0246882 -7.34253e-20)
(0.0896883 0.0111148 1.00866e-18)
(0.273094 0.0707442 1.57419e-18)
(0.472845 0.150396 -6.59856e-19)
(0.618111 0.187549 1.18864e-21)
(-0.0963938 -0.0550032 0)
(-0.0509062 -0.0332891 0)
(0.0476414 -0.0110681 6.07927e-20)
(0.219024 0.0329813 -8.53571e-19)
(0.426965 0.105873 5.89913e-19)
(0.6 0.14532 -5.90494e-19)
(-0.0936067 -0.0497857 7.42948e-19)
(-0.069315 -0.040059 6.28702e-19)
(0.00203334 -0.0314692 6.26194e-20)
(0.153201 -0.00692051 -4.62216e-19)
(0.361072 0.0522757 3.43804e-19)
(0.576069 0.0850319 2.63882e-19)
(-0.0887326 -0.0438687 -8.65614e-19)
(-0.0845708 -0.0445178 -6.64649e-19)
(-0.0451156 -0.0484101 0)
(0.0703291 -0.047017 4.25938e-19)
(0.255119 -0.0115591 -3.53608e-19)
(0.547808 0.00582984 -2.72232e-19)
(-0.0609214 -0.0343954 -4.79761e-19)
(-0.0817288 -0.0451338 0)
(-0.0822879 -0.055182 0)
(-0.0311511 -0.06975 0)
(0.0705064 -0.049254 -1.79686e-19)
(0.52411 -0.0055799 1.21182e-19)
(0.966971 1.03201 -2.1917e-21)
(1.26026 0.79931 -1.13212e-21)
(1.35373 0.627909 -1.61177e-20)
(1.37774 0.509567 8.35211e-22)
(1.37173 0.419737 0)
(1.35577 0.350492 0)
(1.33779 0.297102 3.85747e-21)
(1.32016 0.255296 0)
(1.30347 0.221937 1.2302e-20)
(1.28773 0.19484 7.72065e-21)
(1.2728 0.17245 1.56675e-20)
(1.25848 0.153645 -1.96989e-20)
(1.24457 0.137602 -6.28063e-22)
(1.23085 0.123714 1.98486e-20)
(1.21711 0.111526 1.05519e-20)
(1.20314 0.100703 7.73281e-22)
(1.18871 0.091004 -1.90149e-20)
(1.17356 0.0822761 8.94796e-21)
(1.15741 0.0744274 8.84285e-21)
(1.13986 0.0673236 -1.35706e-20)
(1.12037 0.0608108 0)
(1.09839 0.055911 2.74076e-20)
(1.07377 0.0571178 -2.31245e-20)
(1.04639 0.0658555 -7.02301e-21)
(0.938671 0.902742 0)
(1.19332 0.767655 8.60074e-22)
(1.28742 0.621104 1.14493e-22)
(1.31622 0.510546 -1.71688e-22)
(1.31826 0.425247 0)
(1.31042 0.358971 -5.12905e-22)
(1.29924 0.30721 -4.88698e-22)
(1.28705 0.266135 4.70072e-22)
(1.27464 0.232945 -1.6365e-21)
(1.2623 0.205674 6.22804e-22)
(1.25007 0.182909 -8.0487e-21)
(1.23791 0.163616 0)
(1.22571 0.147032 0)
(1.21335 0.132584 5.91371e-21)
(1.20068 0.119837 -5.22604e-21)
(1.18756 0.108461 0)
(1.17381 0.0982086 5.52722e-21)
(1.15924 0.0889081 -5.64539e-21)
(1.14362 0.0804423 5.29289e-21)
(1.12666 0.0726647 -2.13887e-22)
(1.10788 0.0653636 0)
(1.08672 0.0592001 3.22911e-22)
(1.06305 0.0579993 4.98223e-21)
(1.03798 0.0675001 -4.72777e-21)
(0.897104 0.847103 3.78026e-20)
(1.13538 0.736539 3.16773e-21)
(1.22504 0.60451 0)
(1.25799 0.503139 -3.6973e-21)
(1.26785 0.424538 1.5744e-20)
(1.26734 0.362377 5.05463e-22)
(1.26214 0.312943 4.81785e-22)
(1.25474 0.273148 -4.63663e-22)
(1.24621 0.240601 4.43133e-21)
(1.23701 0.213563 3.3801e-21)
(1.22733 0.190765 -4.22126e-22)
(1.21725 0.171273 1.49039e-20)
(1.20675 0.15439 -6.79693e-21)
(1.1958 0.139587 0)
(1.18429 0.126462 -3.77928e-22)
(1.17214 0.114704 -6.29528e-21)
(1.1592 0.104076 6.02139e-21)
(1.14535 0.0944046 3.51986e-22)
(1.13041 0.0855735 -1.76333e-20)
(1.11415 0.077463 1.12199e-20)
(1.09625 0.0698248 0)
(1.07629 0.0626171 -3.26729e-22)
(1.05387 0.057509 -5.93634e-21)
(1.02849 0.0694708 1.12247e-20)
(0.878723 0.773831 9.60358e-20)
(1.08017 0.687048 -1.76526e-20)
(1.16763 0.579037 0)
(1.20589 0.490106 -3.99223e-20)
(1.22188 0.418734 1.75437e-21)
(1.22709 0.361191 -1.31304e-20)
(1.22686 0.314659 0)
(1.22362 0.276645 -1.93609e-21)
(1.21854 0.24515 -2.8357e-20)
(1.21218 0.218679 -1.83361e-20)