/*--------------------------------*- C++ -*----------------------------------*\
  =========                 |
  \\      /  F ield         | OpenFOAM: The Open Source CFD Toolbox
   \\    /   O peration     | Website:  https://openfoam.org
    \\  /    A nd           | Version:  11
     \\/     M anipulation  |
\*---------------------------------------------------------------------------*/
FoamFile
{
    format      ascii;
    class       surfaceVectorField;
    location    "0.48";
    object      Uf;
}
// * * * * * * * * * * * * * * * * * * * * * * * * * * * * * * * * * * * * * //

dimensions      [0 1 -1 0 0 0 0];

internalField   nonuniform List<vector> 
5640
(
(-0.0979877 0.0676158 2.05683e-19)
(-0.0645233 0.0636534 1.9338e-19)
(-0.240517 0.109038 6.1708e-21)
(-0.20117 0.112235 -8.03849e-21)
(-0.34882 0.13248 -8.53019e-21)
(-0.331868 0.143244 6.38483e-21)
(-0.398191 0.139061 -1.47519e-20)
(-0.393157 0.153404 -1.54927e-20)
(-0.399802 0.120579 8.40116e-21)
(-0.395677 0.152927 8.20447e-21)
(-0.319369 0.10918 0)
(-0.305842 0.000124063 0)
(-0.153596 0.10659 -7.59774e-21)
(-0.0963425 0.0898688 0)
(-0.287643 0.145353 -8.40601e-21)
(-0.238557 0.14427 -2.87275e-22)
(-0.359021 0.159312 4.66966e-21)
(-0.337097 0.163799 2.86537e-21)
(-0.387217 0.15616 4.96844e-21)
(-0.372499 0.162322 -2.1502e-21)
(-0.372681 0.123429 0)
(-0.374506 0.145423 -2.97451e-20)
(-0.323949 0.0820456 2.42876e-20)
(-0.317196 0.0131344 0)
(-0.167684 0.130712 7.19046e-21)
(-0.114727 0.114476 4.08456e-21)
(-0.285996 0.165813 1.06988e-20)
(-0.241909 0.170095 4.08918e-21)
(-0.343179 0.170049 -3.48861e-21)
(-0.322787 0.180147 7.97494e-20)
(-0.362842 0.155215 -3.59898e-20)
(-0.35084 0.16987 7.23708e-20)
(-0.349906 0.110231 -6.75274e-21)
(-0.351486 0.141111 -1.52845e-20)
(-0.3232 0.0724891 2.41314e-20)
(-0.324853 0.0149507 5.06842e-21)
(-0.176835 0.152446 1.36484e-21)
(-0.133204 0.136923 1.41538e-22)
(-0.277856 0.184656 6.99202e-20)
(-0.241193 0.191706 -3.54151e-21)
(-0.326511 0.181053 1.55641e-19)
(-0.30819 0.19527 -6.67422e-21)
(-0.342287 0.157215 9.52828e-20)
(-0.332211 0.177941 1.19246e-20)
(-0.334277 0.106638 1.66948e-20)
(-0.333197 0.141633 2.55434e-22)
(-0.318815 0.073523 -8.44846e-20)
(-0.325365 0.0218986 -4.35921e-20)
(-0.187342 0.172635 -4.17051e-21)
(-0.152804 0.156875 -3.94302e-21)
(-0.27061 0.201593 -8.01251e-20)
(-0.241305 0.208981 1.30787e-20)
(-0.311383 0.192662 -1.51753e-19)
(-0.295419 0.209258 -9.37649e-20)
(-0.324745 0.163028 -8.297e-20)
(-0.315352 0.187124 -6.75209e-20)
(-0.321843 0.110399 -9.67566e-20)
(-0.317727 0.146795 -1.3947e-20)
(-0.312128 0.0814664 1.17505e-20)
(-0.321661 0.0336991 -4.55976e-20)
(-0.1988 0.188478 1.23241e-20)
(-0.170184 0.174957 0)
(-0.264803 0.215861 3.81313e-21)
(-0.241736 0.222078 1.30787e-20)
(-0.297596 0.204383 -1.04191e-20)
(-0.283681 0.222069 -1.00786e-20)
(-0.309113 0.171733 0)
(-0.299853 0.197567 2.6182e-19)
(-0.309995 0.119323 9.41282e-20)
(-0.303334 0.155957 0)
(-0.303011 0.0944094 9.64401e-20)
(-0.314473 0.0493131 1.39817e-19)
(-0.207728 0.204411 0)
(-0.181046 0.19221 6.73186e-19)
(-0.25909 0.227816 0)
(-0.240544 0.232276 -3.95803e-19)
(-0.284611 0.216102 2.52975e-19)
(-0.272304 0.233891 -2.90578e-19)
(-0.294336 0.182818 2.69161e-19)
(-0.285135 0.209204 2.06459e-20)
(-0.297326 0.132334 0)
(-0.288918 0.168399 2.23667e-22)
(-0.291074 0.111222 -2.53837e-20)
(-0.303641 0.0681255 0)
(-0.211172 0.218858 3.39056e-19)
(-0.187462 0.20774 5.23183e-21)
(-0.252292 0.238263 -6.90859e-19)
(-0.23718 0.241021 4.04367e-19)
(-0.271895 0.227908 -5.33386e-19)
(-0.260896 0.24506 3.00348e-19)
(-0.27967 0.195887 -2.47807e-19)
(-0.2707 0.221884 1.86299e-20)
(-0.283118 0.148509 -2.47553e-20)
(-0.273817 0.183445 -1.72477e-19)
(-0.2761 0.131062 1.33583e-19)
(-0.288917 0.0896311 -2.96019e-20)
(-0.212014 0.229126 5.42841e-20)
(-0.192563 0.220362 -6.61541e-19)
(-0.244409 0.247774 1.40037e-18)
(-0.231914 0.248678 3.15072e-20)
(-0.259108 0.239865 8.62177e-19)
(-0.249275 0.255781 2.88766e-19)
(-0.264631 0.210544 9.93537e-20)
(-0.256183 0.235393 2.62227e-19)
(-0.266995 0.16713 -2.19098e-20)
(-0.257665 0.200458 5.8004e-20)
(-0.258042 0.153184 -5.34338e-20)
(-0.270165 0.113429 1.85384e-19)
(-0.211328 0.237932 -7.2432e-19)
(-0.195902 0.230032 0)
(-0.235463 0.256646 -1.09091e-18)
(-0.224994 0.255472 -4.10006e-19)
(-0.246059 0.25197 -3.10486e-19)
(-0.237293 0.266206 -2.83616e-19)
(-0.248935 0.226365 2.26577e-19)
(-0.24135 0.24948 -2.58304e-19)
(-0.248821 0.187527 2.88427e-20)
(-0.240335 0.218824 -6.62904e-20)
(-0.237053 0.176839 -4.35123e-19)
(-0.247412 0.139037 -2.47884e-19)
(-0.209136 0.245086 3.37996e-19)
(-0.197304 0.236682 0)
(-0.225493 0.265031 3.91396e-19)
(-0.216607 0.261535 3.34423e-19)
(-0.232564 0.264175 -2.32363e-19)
(-0.224804 0.27645 3.76212e-20)
(-0.232481 0.242927 -5.56633e-19)
(-0.22611 0.263902 -4.92055e-19)
(-0.228702 0.209017 -5.21296e-19)
(-0.221924 0.237941 -8.78543e-20)
(-0.213541 0.201209 2.83695e-19)
(-0.220936 0.165785 -2.93932e-19)
(-0.205178 0.250429 -2.28668e-20)
(-0.196494 0.240354 0)
(-0.214573 0.272993 -7.93785e-21)
(-0.206888 0.266982 3.87677e-19)
(-0.218564 0.276409 -2.04176e-19)
(-0.211758 0.286559 -3.8812e-20)
(-0.215351 0.259819 -3.42535e-20)
(-0.210517 0.278427 1.01203e-19)
(-0.207 0.230879 7.08733e-19)
(-0.202751 0.257233 -6.54964e-20)
(-0.188212 0.225403 1.06395e-19)
(-0.191376 0.19278 2.87825e-19)
(-0.199239 0.254011 3.88178e-19)
(-0.193146 0.2412 0)
(-0.202683 0.280652 3.75139e-19)
(-0.195917 0.271892 -3.97353e-19)
(-0.204126 0.288573 2.62267e-19)
(-0.198199 0.296571 -7.76799e-20)
(-0.197811 0.27666 7.51596e-20)
(-0.194751 0.292844 9.60942e-20)
(-0.18435 0.252382 -6.72215e-19)
(-0.183344 0.276162 -9.09041e-20)
(-0.162073 0.24851 1.8221e-19)
(-0.159783 0.218941 4.76292e-20)
(-0.191614 0.255577 -7.62701e-19)
(-0.187025 0.239568 -6.93029e-19)
(-0.189895 0.288028 -8.64106e-19)
(-0.183706 0.276219 -8.34259e-19)
(-0.189401 0.300588 -2.48758e-19)
(-0.184234 0.306485 -7.08832e-22)
(-0.180291 0.293097 -6.44067e-20)
(-0.179088 0.306995 3.61269e-20)
(-0.161639 0.272821 7.57381e-19)
(-0.16441 0.294261 -3.30888e-21)
(-0.136415 0.269672 2.88729e-19)
(-0.127565 0.243042 2.9477e-19)
(-0.181777 0.255779 -7.56333e-19)
(-0.177364 0.236372 4.70902e-21)
(-0.176338 0.295086 -8.63335e-21)
(-0.170385 0.279946 3.82669e-19)
(-0.174615 0.312402 2.8338e-19)
(-0.170013 0.316246 1.93265e-20)
(-0.163333 0.308854 9.82419e-20)
(-0.163894 0.32077 2.72611e-19)
(-0.139936 0.291604 -4.79033e-19)
(-0.146747 0.3112 6.61452e-20)
(-0.112744 0.288237 -3.54629e-19)
(-0.0964269 0.263819 -3.43101e-19)
(-0.169839 0.255731 1.11715e-18)
(-0.160875 0.236154 7.1468e-19)
(-0.162208 0.301865 4.24557e-19)
(-0.156323 0.28288 8.08211e-19)
(-0.160067 0.323926 0)
(-0.15578 0.325675 4.11379e-20)
(-0.147561 0.323764 2.46134e-19)
(-0.149593 0.334048 2.465e-19)
(-0.120483 0.308361 2.00333e-19)
(-0.131166 0.326856 -2.86536e-21)
(-0.0927098 0.303929 -3.00384e-19)
(-0.068304 0.280185 -3.32966e-20)
(-0.152282 0.258281 3.98653e-19)
(-0.138326 0.238427 3.1209e-20)
(-0.148022 0.308142 4.57433e-19)
(-0.143177 0.284398 -4.40711e-19)
(-0.146113 0.334932 2.80017e-19)
(-0.141874 0.334261 4.11379e-20)
(-0.133561 0.337762 4.49246e-21)
(-0.136551 0.346651 -3.61366e-19)
(-0.104577 0.323065 -4.9645e-19)
(-0.118358 0.341389 3.58226e-20)
(-0.0780363 0.316954 -5.62774e-20)
(-0.0447465 0.291177 3.08877e-21)
(-0.131673 0.257364 -7.81743e-19)
(-0.118167 0.231472 -5.53544e-19)
(-0.134696 0.312509 -8.76538e-19)
(-0.131894 0.282441 -3.91393e-19)
(-0.133001 0.344935 -5.87129e-19)
(-0.12836 0.341075 3.18911e-19)
(-0.121786 0.350874 -3.4181e-19)
(-0.124932 0.358304 -2.4091e-20)
(-0.0932659 0.336082 4.75993e-19)
(-0.108716 0.355308 3.57465e-19)
(-0.0705101 0.327565 -1.22722e-19)
(-0.0257043 0.296208 -3.9606e-20)
(-0.118259 0.247373 -1.71048e-19)
(-0.102256 0.213147 -2.87846e-20)
(-0.122489 0.313243 7.7859e-19)
(-0.120592 0.275687 4.7846e-19)
(-0.120649 0.353287 8.93536e-19)
(-0.114721 0.345251 -5.16076e-20)
(-0.112344 0.363253 6.64213e-19)
(-0.114556 0.368603 -2.14164e-20)
(-0.087386 0.3481 -2.28951e-19)
(-0.102258 0.369615 3.36334e-19)
(-0.07202 0.335169 -2.99754e-19)
(-0.00927574 0.295301 -3.55418e-19)
(-0.1056 0.232143 5.92513e-19)
(-0.0862693 0.19106 5.35695e-19)
(-0.109804 0.310207 -3.23285e-19)
(-0.107834 0.264587 2.74991e-20)
(-0.10865 0.359455 -9.68142e-19)
(-0.100299 0.346441 -3.94136e-19)
(-0.10484 0.375327 -3.59316e-19)
(-0.104731 0.377036 -2.72447e-19)
(-0.0880718 0.360311 2.75717e-19)
(-0.0985381 0.386337 2.78427e-20)
(-0.0854793 0.339077 2.93693e-19)
(0.00770351 0.286111 -1.13994e-21)
(-0.089253 0.213357 0)
(-0.0693229 0.167828 -2.89397e-19)
(-0.0956497 0.303443 -2.20832e-20)
(-0.0931577 0.249145 -2.33776e-19)
(-0.0960082 0.362982 2.97603e-19)
(-0.0844231 0.344437 -4.74038e-20)
(-0.0985613 0.387806 1.06775e-19)
(-0.0944796 0.382081 5.17701e-19)
(-0.0951649 0.376807 3.76113e-20)
(-0.0951349 0.409475 -3.87402e-19)
(-0.112458 0.342711 1.4557e-19)
(0.0320858 0.270929 1.73553e-19)
(-0.0743641 0.192818 -5.26381e-19)
(-0.0523787 0.142237 5.36383e-20)
(-0.080354 0.293312 -2.67027e-19)
(-0.0763621 0.228115 2.11816e-20)
(-0.082559 0.362825 1.53174e-19)
(-0.0670102 0.338054 -2.43391e-20)
(-0.09143 0.400308 4.89005e-20)
(-0.0828635 0.378572 8.76859e-21)
(-0.100618 0.404804 -2.82712e-19)
(-0.0863012 0.442091 5.95602e-21)
(-0.132504 0.347295 -1.70253e-20)
(0.0895688 0.299035 -3.04672e-20)
(-0.0596841 0.166187 5.92733e-19)
(-0.0397374 0.0975705 3.36268e-19)
(-0.0639422 0.278073 2.62285e-19)
(-0.0597576 0.184435 1.19551e-19)
(-0.0686533 0.354059 -1.6848e-19)
(-0.0512948 0.313375 0)
(-0.080774 0.408097 -3.16774e-20)
(-0.0704886 0.346334 -1.50883e-19)
(-0.0931818 0.444026 2.91656e-19)
(-0.0675901 0.471959 1.3219e-19)
(-0.123136 0.324982 1.69511e-19)
(0.213194 0.387389 1.62707e-19)
(-0.0416533 0.100938 -1.24411e-19)
(-0.0453211 0.227775 -1.37646e-19)
(-0.0496533 0.305691 2.26941e-20)
(-0.0577432 0.382702 -5.19829e-21)
(-0.0728182 0.450932 9.15113e-21)
(0.321619 0.458398 -4.94209e-20)
(-0.406125 -0.13301 0)
(-0.360864 -0.108505 0)
(-0.409323 -0.139831 0)
(-0.422169 -0.139677 0)
(-0.413525 -0.139494 -3.24565e-21)
(-0.431212 -0.144916 -1.34883e-20)
(-0.411936 -0.126892 2.9472e-20)
(-0.419809 -0.136928 1.97579e-22)
(-0.42362 -0.13124 3.47028e-20)
(-0.380522 -0.107707 6.97105e-21)
(-0.401586 -0.126461 3.13475e-20)
(-0.394928 -0.108523 -1.10794e-20)
(-0.333398 -0.0849854 -2.44657e-20)
(-0.364137 -0.11106 -2.40996e-20)
(-0.34861 -0.0816046 -8.72407e-21)
(-0.274999 -0.0597412 1.15879e-20)
(-0.313631 -0.092146 8.05519e-22)
(-0.28923 -0.0524013 0)
(-0.209055 -0.0325368 2.1179e-20)
(-0.254219 -0.0700498 1.23932e-20)
(-0.220449 -0.0216084 -5.52797e-20)
(-0.138791 -0.00428082 1.64225e-20)
(-0.189351 -0.0454626 8.71621e-21)
(-0.145708 0.00983242 -2.723e-20)
(-0.066789 0.0240128 -2.23733e-21)
(-0.12189 -0.0194694 1.02754e-20)
(-0.0680535 0.0408577 -3.59823e-20)
(0.00481976 0.0514892 -4.68719e-21)
(-0.0541224 0.00696068 -9.40641e-21)
(0.0099623 0.0704826 1.36076e-20)
(0.0743912 0.0774168 1.16858e-20)
(0.0122882 0.0329641 1.08254e-20)
(0.0863233 0.0979825 5.10641e-21)
(0.140688 0.101208 2.31531e-21)
(0.0760584 0.0578032 6.59402e-21)
(0.159465 0.122786 -1.36075e-22)
(0.202796 0.122405 -3.98674e-22)
(0.136243 0.0809134 -4.38043e-21)
(0.228254 0.144491 -2.84831e-21)
(0.260116 0.140662 -6.87469e-22)
(0.192174 0.101799 2.69813e-21)
(0.29193 0.162821 1.33551e-20)
(0.312307 0.155743 -4.01872e-21)
(0.243443 0.12008 -3.59987e-21)
(0.35006 0.177621 -5.95629e-21)
(0.35929 0.167518 4.44983e-21)
(0.289798 0.135418 1.1128e-21)
(0.40249 0.188832 -4.1541e-21)
(0.401183 0.175963 4.57271e-21)
(0.331221 0.147619 2.9018e-21)
(0.449315 0.196511 6.99069e-21)
(0.438266 0.18113 6.86709e-22)
(0.36791 0.156581 1.65614e-21)
(0.490813 0.200811 -3.23107e-22)
(0.470967 0.183117 4.36602e-22)
(0.400199 0.162245 -6.75098e-22)
(0.527396 0.201948 1.29039e-22)
(0.499832 0.182106 8.68858e-22)
(0.428567 0.164625 9.32753e-22)
(0.559598 0.200191 1.70805e-21)
(0.525482 0.178445 1.28016e-22)
(0.453623 0.163846 0)
(0.588062 0.195873 0)
(0.548568 0.172636 -2.34183e-23)
(0.475934 0.160259 1.24163e-22)
(0.613483 0.189472 -6.77415e-22)
(0.569548 0.164911 -3.79472e-21)
(0.495313 0.154567 -1.22083e-22)
(0.636132 0.181493 1.4422e-22)
(0.509762 0.147457 2.3132e-22)
(0.654775 0.171798 1.87852e-22)
(-0.382497 -0.115195 -3.16785e-21)
(-0.347768 -0.0827882 -2.78902e-20)
(-0.411637 -0.136018 -3.08374e-21)
(-0.401394 -0.126467 -6.65166e-21)
(-0.410335 -0.136484 1.55898e-21)
(-0.412856 -0.138198 1.97579e-22)
(-0.386305 -0.129951 1.33904e-21)
(-0.400348 -0.141502 7.14001e-21)
(-0.34584 -0.118516 7.9328e-22)
(-0.367424 -0.138552 -2.02355e-20)
(-0.294279 -0.102892 1.44957e-21)
(-0.321311 -0.130263 4.02154e-25)
(-0.235751 -0.0835145 1.51342e-22)
(-0.266767 -0.116872 2.77039e-24)
(-0.173507 -0.0612397 2.67194e-21)
(-0.20748 -0.0990335 -4.3533e-24)
(-0.110085 -0.0371275 3.4699e-21)
(-0.146331 -0.0778762 3.41708e-22)
(-0.0473256 -0.0121633 5.97822e-21)
(-0.0854995 -0.0545891 -2.14152e-21)
(0.0134211 0.0127904 5.90584e-21)
(-0.0263687 -0.0302099 6.0747e-21)
(0.0712076 0.0369891 0)
(0.0300522 -0.00567901 -4.94868e-21)
(0.125285 0.0598215 -1.46265e-21)
(0.0830853 0.0183797 2.26992e-21)
(0.175214 0.0807806 -2.05742e-22)
(0.132299 0.0412185 -1.47561e-21)
(0.220674 0.0993762 1.34795e-21)
(0.177433 0.0623806 1.40253e-21)
(0.261499 0.115191 -5.51202e-22)
(0.218367 0.0813745 6.45547e-22)
(0.297742 0.12796 -2.63425e-23)
(0.2551 0.0977222 -1.17358e-21)
(0.32965 0.137487 3.10534e-22)
(0.287765 0.111017 5.50962e-22)
(0.357605 0.143625 -2.20181e-22)
(0.316622 0.120937 2.96692e-22)
(0.382099 0.146323 3.67561e-23)
(0.342044 0.127243 -3.38829e-22)
(0.403705 0.145685 -4.61967e-24)
(0.364484 0.129835 0)
(0.423057 0.14208 -6.87115e-23)
(0.384251 0.128851 -3.15363e-23)
(0.440732 0.136323 -6.10601e-23)
(0.400944 0.124946 3.02652e-23)
(0.414021 0.119847 -8.51155e-23)
(-0.372924 -0.0952295 -3.24857e-20)
(-0.343298 -0.0602382 -8.41816e-20)
(-0.402372 -0.128562 -3.47733e-21)
(-0.391645 -0.111613 1.05816e-20)
(-0.403849 -0.143014 5.71183e-21)
(-0.403577 -0.137057 0)
(-0.382607 -0.150079 -1.4079e-20)
(-0.391723 -0.154408 4.57416e-20)
(-0.344402 -0.150432 -2.13368e-20)
(-0.359 -0.164471 -1.92305e-20)
(-0.295215 -0.144505 -1.44996e-21)
(-0.31278 -0.166965 1.31157e-20)
(-0.239683 -0.132749 -1.51743e-22)
(-0.258596 -0.162065 -6.41533e-22)
(-0.181266 -0.116086 -2.33065e-21)
(-0.200591 -0.150545 1.83109e-21)
(-0.122523 -0.095779 -5.23331e-21)
(-0.141748 -0.133689 1.6471e-20)
(-0.0651333 -0.0730746 -2.12716e-21)
(-0.0841672 -0.113064 5.70096e-21)
(-0.0101918 -0.0490492 -4.66706e-21)
(-0.0290322 -0.0899959 -9.39103e-22)
(0.0415768 -0.0246297 -2.78248e-21)
(0.0229239 -0.065618 -2.41252e-21)
(0.0898171 -0.000583327 2.28985e-21)
(0.0713183 -0.0408481 -4.00499e-21)
(0.134283 0.0224443 7.05124e-23)
(0.115998 -0.0164927 5.09645e-21)
(0.174928 0.0439168 7.1209e-22)
(0.156924 0.00678023 4.32677e-21)
(0.211794 0.0633089 6.37533e-23)
(0.194209 0.0283751 -2.51867e-22)
(0.244956 0.0800373 -6.47431e-22)
(0.227985 0.0477687 -2.93006e-21)
(0.274578 0.0935815 5.20579e-22)
(0.258409 0.0644077 4.44214e-22)
(0.300894 0.103535 1.73886e-22)
(0.285693 0.0778228 4.73605e-22)
(0.324187 0.109624 -3.77758e-22)
(0.310085 0.0876423 -1.74218e-22)
(0.344732 0.111789 4.59583e-24)
(0.331789 0.0937024 -1.62062e-22)
(0.362784 0.110521 9.87723e-23)
(0.350865 0.0960741 -1.8801e-22)
(0.378463 0.107645 1.0789e-21)
(0.36735 0.0955044 8.19971e-22)
(0.38242 0.0944091 -3.1321e-22)
(-0.365403 -0.0760936 -4.22382e-20)
(-0.338853 -0.0382781 8.43081e-21)
(-0.392052 -0.119672 1.42806e-20)
(-0.38082 -0.0957132 1.39876e-20)
(-0.392316 -0.148117 3.91792e-20)
(-0.390431 -0.134231 0)
(-0.369421 -0.168672 4.1571e-20)
(-0.375191 -0.165787 -8.30435e-20)
(-0.329017 -0.181047 1.52851e-20)
(-0.338262 -0.189188 -6.62082e-20)
(-0.277658 -0.184715 1.41156e-20)
(-0.287316 -0.202504 -1.0285e-20)
(-0.22072 -0.180155 1.30954e-21)
(-0.22896 -0.205631 4.47754e-20)
(-0.162011 -0.168498 2.07348e-20)
(-0.168035 -0.199671 -4.18821e-20)
(-0.10412 -0.151344 2.75599e-20)
(-0.107694 -0.186259 4.28913e-20)
(-0.0486061 -0.130339 6.98365e-21)
(-0.0499113 -0.167444 -1.83672e-20)
(0.00367995 -0.106871 1.34841e-21)
(0.00432999 -0.14498 -7.58166e-21)
(0.0523387 -0.082087 -3.63821e-21)
(0.0546331 -0.120311 2.55485e-21)
(0.0972479 -0.0569396 -1.37421e-21)
(0.100924 -0.0945793 -2.97947e-21)
(0.138432 -0.0322425 9.35913e-21)
(0.143329 -0.0687224 2.79586e-21)
(0.176026 -0.00869591 3.55825e-21)
(0.182056 -0.0435323 2.6885e-21)
(0.210221 0.0130824 -3.07409e-21)
(0.217369 -0.0196946 9.97117e-22)
(0.241259 0.0325352 -1.9718e-21)
(0.249552 0.00217635 -4.77739e-21)
(0.269358 0.0491549 5.38482e-22)
(0.278876 0.0215313 4.69179e-22)
(0.294701 0.0625237 3.08894e-22)
(0.305574 0.0379139 -3.8582e-23)
(0.317521 0.072392 4.13996e-23)
(0.329848 0.050802 -8.62839e-22)
(0.337858 0.0787802 -3.54508e-22)
(0.351746 0.0602697 4.53019e-22)
(0.355651 0.0821426 2.35679e-23)
(0.371392 0.0664858 5.94483e-22)
(0.370743 0.083677 -3.14472e-24)
(0.389556 0.070349 -5.60395e-22)
(0.408608 0.0735865 -6.38933e-22)
(-0.356168 -0.0569208 6.60332e-20)
(-0.331846 -0.0157616 9.7289e-20)
(-0.378145 -0.109487 0)
(-0.366906 -0.0786323 6.02495e-20)
(-0.374145 -0.151471 -1.20671e-19)
(-0.371559 -0.129589 2.58894e-20)
(-0.34561 -0.186042 -1.91097e-19)
(-0.349392 -0.175652 -3.93405e-20)
(-0.298461 -0.210629 -9.20668e-20)
(-0.303535 -0.212754 3.26959e-20)
(-0.240302 -0.223576 2.0597e-20)
(-0.242936 -0.236816 -5.36427e-20)
(-0.177599 -0.225407 3.17619e-21)
(-0.175753 -0.247211 -1.53369e-20)
(-0.114697 -0.217733 -2.03511e-20)
(-0.107788 -0.245627 5.47976e-21)
(-0.054201 -0.202657 -2.41646e-21)
(-0.0424413 -0.234394 2.34901e-20)
(0.00251372 -0.182354 -3.30372e-20)
(0.018502 -0.216178 -1.08483e-20)
(0.054908 -0.158647 -6.49271e-21)
(0.0744075 -0.193288 -3.07036e-20)
(0.102929 -0.132976 3.20927e-21)
(0.125292 -0.167556 1.35621e-20)
(0.146782 -0.106471 1.08306e-21)
(0.171479 -0.140374 -7.23179e-21)
(0.186771 -0.080058 -3.64636e-21)
(0.213447 -0.112784 -2.20403e-21)
(0.223243 -0.0545211 4.32158e-22)
(0.251704 -0.085648 -4.56403e-22)
(0.256557 -0.0305403 -2.97502e-23)
(0.286734 -0.0596922 1.89453e-21)
(0.287042 -0.00871303 -2.30379e-21)
(0.318977 -0.0355296 -3.28495e-21)
(0.314985 0.0104441 -1.09619e-23)
(0.34881 -0.0136893 -4.99598e-23)
(0.340622 0.0265289 -1.06799e-21)
(0.376533 0.00538998 -1.10386e-23)
(0.364043 0.0392849 5.80451e-22)
(0.40234 0.0213643 2.21044e-21)
(0.385394 0.0487495 2.62678e-21)
(0.426295 0.0341066 4.01053e-22)
(0.404722 0.055423 1.25393e-21)
(0.448641 0.0438199 1.44116e-21)
(0.422039 0.0602729 -1.21749e-21)
(0.470432 0.0514015 -1.42983e-21)
(0.495172 0.0581495 2.21838e-22)
(-0.34342 -0.0364218 9.13447e-20)
(-0.321117 0.00782626 3.28018e-20)
(-0.359103 -0.0975498 8.5908e-20)
(-0.348433 -0.0598113 -5.92163e-20)
(-0.347765 -0.153069 1.08469e-19)
(-0.345654 -0.122692 7.69031e-20)
(-0.309279 -0.202029 1.83365e-19)
(-0.312376 -0.183673 -5.00874e-21)
(-0.250351 -0.23893 7.06815e-20)
(-0.25216 -0.23487 2.12402e-19)
(-0.180407 -0.260572 -8.91425e-20)
(-0.176292 -0.269357 -2.94359e-20)
(-0.107488 -0.267566 -1.21506e-20)
(-0.0953146 -0.28581 -5.53378e-20)
(-0.0366395 -0.262365 4.92571e-20)
(-0.0162127 -0.286849 8.42038e-20)
(0.0294812 -0.247902 1.49336e-20)
(0.0572712 -0.275923 0)
(0.0898487 -0.227013 -8.54878e-21)
(0.123656 -0.256637 1.78382e-20)
(0.144388 -0.202025 -1.10832e-20)
(0.182916 -0.231965 -2.91948e-22)
(0.193517 -0.174717 3.62832e-21)
(0.23568 -0.204173 5.78063e-21)
(0.237881 -0.146397 -1.0563e-20)
(0.282838 -0.174922 -1.13041e-20)
(0.278161 -0.118058 9.71349e-22)
(0.325333 -0.145345 5.68156e-21)
(0.315003 -0.0905078 9.87299e-22)
(0.364054 -0.116315 -6.42083e-22)
(0.34899 -0.0644084 -9.9018e-22)
(0.39976 -0.0885374 0)
(0.380614 -0.040306 -6.89105e-22)
(0.433094 -0.062565 -9.97744e-22)
(0.410264 -0.0186533 -5.0307e-23)
(0.46457 -0.0388435 1.36068e-22)
(0.438233 0.000194181 3.25257e-21)
(0.494576 -0.0177279 0)
(0.464715 0.016028 2.03056e-21)
(0.52338 0.000523312 1.00868e-20)
(0.489826 0.0288585 -7.90991e-22)
(0.551074 0.0157939 -7.01512e-21)
(0.513623 0.0390495 0)
(0.577996 0.0282627 3.22597e-21)
(0.536151 0.0469508 0)
(0.604697 0.0387559 -8.00877e-21)
(0.636755 0.0487817 3.53674e-21)
(-0.32618 -0.0142567 -1.16817e-19)
(-0.306012 0.0328782 0)
(-0.333619 -0.0833597 -7.22472e-20)
(-0.3244 -0.0386786 -1.8216e-19)
(-0.311353 -0.152391 -3.56882e-20)
(-0.311163 -0.112936 5.397e-20)
(-0.2578 -0.216221 2.26717e-20)
(-0.261623 -0.189228 -3.93918e-20)
(-0.181108 -0.26547 1.14125e-19)
(-0.180388 -0.254819 3.8177e-20)
(-0.0936801 -0.294939 4.72938e-21)
(-0.0827662 -0.298986 0)
(-0.00584359 -0.305499 4.17723e-20)
(0.0170759 -0.319643 -3.74306e-20)
(0.0765448 -0.300762 3.59508e-20)
(0.110674 -0.320986 7.70382e-21)
(0.150697 -0.284888 2.6058e-21)
(0.194054 -0.307895 2.59395e-20)
(0.216242 -0.261657 2.56929e-20)
(0.266569 -0.285464 2.63512e-21)
(0.27387 -0.234029 1.6713e-20)
(0.32931 -0.257411 2.36178e-20)
(0.324731 -0.204178 -8.8166e-21)
(0.383834 -0.226467 -7.20732e-21)
(0.370066 -0.173583 3.20788e-21)
(0.43176 -0.194528 4.20997e-21)
(0.411029 -0.143256 4.98688e-21)
(0.474584 -0.162778 5.68156e-21)
(0.448621 -0.113964 -7.5425e-22)
(0.513588 -0.132027 -1.64004e-21)
(0.48368 -0.0862964 0)
(0.549815 -0.102894 7.06707e-21)
(0.516874 -0.0607047 1.00502e-21)
(0.584086 -0.0758177 -4.69951e-21)
(0.548717 -0.0375373 1.01939e-21)
(0.617042 -0.0511221 -2.63378e-21)
(0.579585 -0.0170502 6.12811e-21)
(0.649151 -0.0290402 -7.36549e-21)
(0.609725 0.000620497 -1.56365e-21)
(0.680751 -0.00971797 1.54875e-20)
(0.639275 0.0154667 -3.59801e-21)
(0.711845 0.00677374 -3.42142e-21)
(0.668297 0.0278953 -3.1794e-21)
(0.743087 0.020615 4.20674e-21)
(0.696773 0.0381464 -3.57378e-20)
(0.773496 0.03236 -3.74971e-21)
(0.813794 0.045485 -5.95372e-22)
(-0.303648 0.0100408 -6.09763e-20)
(-0.286091 0.0596412 0)
(-0.300319 -0.0662473 -6.43085e-20)
(-0.293814 -0.0147261 -3.33268e-19)
(-0.262652 -0.148721 5.18093e-20)
(-0.266335 -0.0996536 2.95628e-21)
(-0.187571 -0.227822 -2.35837e-20)
(-0.193911 -0.19145 4.92703e-20)
(-0.0859347 -0.289091 -7.60694e-20)
(-0.0834668 -0.271326 -7.4931e-20)
(0.0250535 -0.324754 -4.29962e-20)
(0.0427393 -0.323726 0)
(0.131902 -0.335977 -7.16292e-20)
(0.165266 -0.346148 -4.36032e-20)
(0.22703 -0.328734 -2.05564e-21)
(0.273948 -0.344253 -5.58138e-20)
(0.309238 -0.308908 2.62282e-20)
(0.366398 -0.326405 9.60387e-20)
(0.379285 -0.281476 0)
(0.44356 -0.298734 0)
(0.439089 -0.250002 0)
(0.508078 -0.265941 0)
(0.490764 -0.216909 5.71342e-21)
(0.562661 -0.231136 0)
(0.536231 -0.183785 5.81751e-21)
(0.60978 -0.196273 -2.16756e-21)
(0.57712 -0.151604 -7.52035e-22)
(0.651518 -0.162495 0)
(0.614761 -0.12101 6.24656e-21)
(0.689526 -0.130484 -1.12539e-21)
(0.650197 -0.0924514 1.12688e-21)
(0.725087 -0.10068 4.05806e-21)
(0.684212 -0.0662446 -8.35329e-21)
(0.759109 -0.0733602 -4.69951e-21)
(0.717419 -0.0426086 -1.09858e-20)
(0.792355 -0.0487194 2.03779e-21)
(0.750245 -0.0216754 2.35444e-21)
(0.825301 -0.0268554 -1.11333e-20)
(0.782922 -0.00345973 1.25266e-20)
(0.858288 -0.00773146 7.60492e-21)
(0.815522 0.0120337 4.67698e-21)
(0.890937 0.00863948 1.9394e-21)
(0.847935 0.0253076 5.56522e-21)
(0.924857 0.0228408 -3.95547e-21)
(0.879941 0.0365808 4.11269e-20)
(0.955227 0.0341671 9.35587e-21)
(1.00454 0.0500867 -4.40272e-21)
(-0.275142 0.0367703 -2.64303e-19)
(-0.261105 0.0881283 0)
(-0.257763 -0.0456 -2.76465e-19)
(-0.255793 0.0123404 1.92913e-21)
(-0.198965 -0.141201 0)
(-0.20921 -0.0822305 6.09687e-20)
(-0.0942249 -0.235488 0)
(-0.105083 -0.189093 -5.5721e-20)
(0.0401658 -0.307396 0)
(0.0444359 -0.281907 0)
(0.179451 -0.345955 0)
(0.205228 -0.339836 -1.33515e-19)
(0.30495 -0.354681 -2.7631e-20)
(0.350749 -0.359402 0)
(0.411789 -0.341881 4.14865e-20)
(0.472514 -0.351676 -2.79905e-20)
(0.499842 -0.315861 7.08792e-20)
(0.570492 -0.326687 5.84664e-20)
(0.571883 -0.282684 0)
(0.64842 -0.292421 -5.87693e-21)
(0.63136 -0.246533 0)
(0.710846 -0.254334 0)
(0.681492 -0.209973 -5.7901e-21)
(0.761944 -0.215737 1.89556e-20)
(0.724934 -0.174491 -5.89559e-21)
(0.805124 -0.178468 -1.33895e-20)
(0.763792 -0.140938 1.3449e-21)
(0.843002 -0.143483 -2.18856e-21)
(0.799725 -0.109773 -3.10308e-21)
(0.877649 -0.111248 2.68033e-21)
(0.833899 -0.0812267 -4.54e-21)
(0.910386 -0.0819298 3.6307e-21)
(0.867109 -0.0554484 7.25645e-21)
(0.942145 -0.0555152 -5.10303e-21)
(0.900021 -0.0325065 3.61862e-21)
(0.974043 -0.0320194 3.48592e-21)
(0.933014 -0.0123834 -7.50773e-21)
(1.00589 -0.0116049 1.69396e-21)
(0.966175 0.00501186 -7.1233e-21)
(1.03764 0.00593813 -7.02815e-21)
(0.999628 0.019699 -8.64865e-21)
(1.06838 0.0202633 -1.29691e-20)
(1.03311 0.0320814 7.14728e-21)
(1.10045 0.0328085 3.77833e-21)
(1.06703 0.0418278 4.85707e-21)
(1.12536 0.0400393 -4.43864e-21)
(1.17565 0.0568905 6.49891e-21)
(-0.24019 0.0659432 2.67732e-19)
(-0.23107 0.11802 -4.05138e-20)
(-0.204537 -0.0210497 3.39745e-19)
(-0.209715 0.0423885 3.46383e-19)
(-0.116815 -0.128885 7.76185e-21)
(-0.13759 -0.0605077 -2.75173e-19)
(0.0280008 -0.236936 -5.66528e-20)
(0.0102446 -0.180635 1.10815e-19)
(0.203553 -0.315874 -1.31486e-19)
(0.210093 -0.28302 -2.85592e-19)
(0.371614 -0.35408 -1.35373e-19)
(0.407484 -0.340283 -2.77059e-21)
(0.514879 -0.356459 0)
(0.572777 -0.354266 -1.00562e-19)
(0.629279 -0.335631 -6.732e-21)
(0.700519 -0.338366 -5.92835e-20)
(0.718094 -0.301934 -9.70928e-21)
(0.795907 -0.305594 9.50609e-22)
(0.786866 -0.262674 -5.93823e-21)
(0.866711 -0.265168 -4.29016e-20)
(0.841131 -0.222291 1.87696e-20)
(0.920169 -0.223038 -2.40299e-20)
(0.885431 -0.183199 1.43901e-20)
(0.962044 -0.182385 -4.16443e-21)
(0.923135 -0.146615 -9.78081e-21)
(0.996449 -0.144675 -2.42301e-20)
(0.956756 -0.113129 -3.04182e-21)
(1.02655 -0.110436 8.19407e-21)
(0.988194 -0.0829532 8.51601e-21)
(1.05466 -0.0798811 -1.94656e-21)
(1.01878 -0.0561267 2.13719e-21)
(1.08136 -0.0533079 2.94097e-21)
(1.04953 -0.0326321 -5.62471e-21)
(1.10731 -0.030724 -3.37543e-21)
(1.08054 -0.012302 -3.61065e-23)
(1.13252 -0.0116325 -4.76939e-21)
(1.11117 0.00517812 -2.80472e-21)
(1.15655 0.00467987 5.677e-22)
(1.14076 0.0198607 -1.28359e-20)
(1.1792 0.0187343 -4.66811e-22)
(1.16882 0.0320026 -4.07269e-21)
(1.2 0.030034 2.68651e-21)
(1.19461 0.0414756 -3.67293e-22)
(1.22036 0.0406357 -3.4454e-21)
(1.21946 0.0479295 -1.1332e-19)
(1.23521 0.0447829 -9.53545e-21)
(1.27395 0.0597307 7.51111e-21)
(-0.198698 0.0970936 2.38824e-20)
(-0.196392 0.148585 -4.04038e-19)
(-0.139356 0.00715673 -2.55517e-19)
(-0.155491 0.074518 7.20752e-20)
(-0.0121862 -0.111207 -1.79546e-19)
(-0.0492805 -0.0352669 -6.64148e-20)
(0.186038 -0.228893 -1.22258e-19)
(0.158253 -0.165052 5.35995e-20)
(0.406214 -0.311022 -1.56732e-19)
(0.415399 -0.268858 -9.41839e-20)
(0.602592 -0.343545 3.79758e-20)
(0.645129 -0.321954 7.04383e-20)
(0.755115 -0.337443 -1.60375e-19)
(0.816941 -0.327596 9.51577e-20)
(0.866023 -0.308323 -5.39152e-20)
(0.935219 -0.304395 -1.21464e-19)
(0.944638 -0.268289 -2.77019e-20)
(1.0143 -0.266666 1.04991e-19)
(1.0006 -0.225047 -5.48353e-20)
(1.06706 -0.223813 -4.03322e-20)
(1.04181 -0.182934 -4.78328e-20)
(1.10322 -0.181568 2.23856e-21)
(1.07393 -0.144023 -4.05515e-20)
(1.12947 -0.142654 -2.94432e-20)
(1.10101 -0.109142 -8.235e-21)
(1.15027 -0.108198 -1.75737e-20)
(1.12574 -0.0784187 1.37215e-20)
(1.16855 -0.0784173 2.05065e-20)
(1.14896 -0.0517188 -2.25928e-21)
(1.18495 -0.0528336 4.35317e-21)
(1.17062 -0.0289366 5.50597e-22)
(1.19991 -0.0307116 -2.89199e-21)
(1.19046 -0.0098519 -3.80954e-21)
(1.21397 -0.0119253 -7.91754e-21)
(1.20825 0.00598964 -2.31552e-21)
(1.22654 0.0034313 4.67363e-21)
(1.22409 0.0191251 9.40407e-21)
(1.2379 0.0158599 1.21456e-21)
(1.23829 0.0297366 2.0035e-20)
(1.24819 0.0260439 1.10531e-21)
(1.25102 0.0384018 2.76231e-21)
(1.25771 0.0336729 1.66001e-20)
(1.26324 0.0443613 -1.08555e-20)
(1.26681 0.0401841 -1.30674e-20)
(1.27547 0.0474718 -3.27546e-22)
(1.27479 0.0421643 2.75131e-21)
(1.30099 0.0562658 5.72882e-21)
(-0.151302 0.129063 -3.72239e-19)
(-0.158023 0.178723 2.5315e-19)
(-0.061871 0.0369734 2.68668e-19)
(-0.0942979 0.10687 0)
(0.118429 -0.0886169 1.68681e-19)
(0.0577927 -0.00878027 2.03878e-19)
(0.379684 -0.210169 1.09247e-19)
(0.34119 -0.140339 -4.86165e-20)
(0.644194 -0.288177 1.72011e-19)
(0.652583 -0.23877 -8.25686e-20)
(0.853651 -0.312158 1.36728e-19)
(0.895501 -0.283905 8.33153e-20)
(0.995386 -0.298387 1.4656e-19)
(1.04979 -0.282459 1.86812e-19)
(1.08467 -0.264952 3.76523e-20)
(1.13966 -0.256715 9.70764e-20)
(1.13916 -0.22373 1.10402e-19)
(1.18998 -0.220059 1.05565e-19)
(1.17225 -0.181771 2.35944e-20)
(1.21699 -0.180476 -3.18132e-20)
(1.1932 -0.142727 2.7941e-20)
(1.23131 -0.142975 -1.85331e-20)
(1.20782 -0.108129 2.85462e-21)
(1.23943 -0.109538 3.39965e-20)
(1.21933 -0.0784006 2.91237e-21)
(1.24505 -0.0806531 -1.84061e-20)
(1.22876 -0.053272 6.13483e-21)
(1.24941 -0.0561716 2.30114e-21)
(1.23668 -0.0321288 7.66321e-21)
(1.25286 -0.0357968 1.07726e-20)
(1.24391 -0.0144723 -6.86485e-21)
(1.25632 -0.0189005 4.61851e-22)
(1.25074 0.000105295 -8.19202e-22)
(1.26014 -0.00481055 -7.35203e-21)
(1.25713 0.0120085 3.26666e-21)
(1.26365 0.00658374 6.79223e-21)
(1.26298 0.021585 -2.47987e-21)
(1.26675 0.015686 5.57028e-21)
(1.26859 0.0290196 2.2353e-21)
(1.27008 0.0230711 2.1508e-21)
(1.27416 0.034715 2.7771e-21)
(1.27391 0.0281688 -2.07385e-20)
(1.2803 0.0386538 2.89788e-21)
(1.27755 0.0314017 2.49229e-20)
(1.28546 0.040797 9.2497e-21)
(1.28102 0.0337525 -1.8559e-20)
(1.29583 0.0484439 1.76529e-20)
(-0.0995332 0.159756 6.3227e-19)
(-0.117633 0.207137 1.5814e-19)
(0.0289476 0.0665799 -6.90596e-20)
(-0.0276472 0.135778 3.98748e-19)
(0.275894 -0.0617184 -4.9341e-21)
(0.185678 0.0171795 -7.05368e-20)
(0.602513 -0.17782 -2.1729e-19)
(0.554686 -0.10612 6.43201e-20)
(0.891936 -0.246183 -9.69815e-20)
(0.899093 -0.192609 -9.91993e-20)
(1.08642 -0.262146 1.49524e-19)
(1.12427 -0.229388 3.72415e-19)
(1.19392 -0.245384 1.31064e-19)
(1.2383 -0.225208 -9.53658e-20)
(1.24775 -0.214503 1.61156e-19)
(1.29006 -0.202554 7.35863e-20)
(1.27158 -0.178713 -3.5121e-20)
(1.30932 -0.172515 -8.9942e-21)
(1.27956 -0.143535 -8.0221e-20)
(1.31164 -0.140376 -4.25191e-20)
(1.28058 -0.111593 -1.72414e-20)
(1.30691 -0.110669 -2.62211e-20)
(1.27916 -0.0837272 1.23709e-20)