/*--------------------------------*- C++ -*----------------------------------*  =========                 |
  \      /  F ield         | OpenFOAM: The Open Source CFD Toolbox
   \    /   O peration     | Website:  https://openfoam.org
    \  /    A nd           | Version:  11
     \/     M anipulation  |
\*---------------------------------------------------------------------------*/
FoamFile
{
    format      ascii;
    class       volScalarField;
    object      U;
}
// * * * * * * * * * * * * * * * * * * * * * * * * * * * * * * * * * * * * * //

dimensions      [0 1 -1 0 0 0 0];

internalField   nonuniform List<scalar> 
2880
( 
0.041896381288717414
0.04996573832974549
0.09112973843371125
0.11769951290123482
0.17052302689438692
0.174121356934466
0.03616555208795269
0.05704734690566009
0.10000829940671963
0.11139645764577666
0.13511693712300443
0.14801105154735622
0.04027451735295774
0.05064222053230555
0.08624197860373187
0.10220150111793683
0.11295797145887324
0.10485632455537175
0.03910323629450141
0.04942061866769684
0.07876313977594429
0.0865177412646688
0.08944585360821161
0.09917227243804383
0.04006024811408286
0.056504885902008306
0.06594830777897048
0.07325210165670118
0.06948363631073473
0.07234786684884748
0.03762357759710712
0.04856233581777314
0.05740908947972084
0.04733894797917293
0.0646665872574474
0.054068935952240604
0.04179146666883786
0.03972006117101706
0.04632853487227012
0.0442799432689181
0.030197755501900292
0.02736947198066092
0.034248348848994276
0.039890838107692256
0.03361258432345643
0.029370367282314402
-0.0016227195068658773
0.006449350588890512
0.02752171485036492
0.03672286473400241
0.04028798202099812
0.022746412740513977
-0.0005496030378877581
-0.004135086963085788
0.03481150441875472
0.03247225379747859
0.026992171578653135
0.012376464505185258
0.002978941291296555
-0.003288323730341325
0.03150859244549173
0.028866701304825326
0.017608903185558716
0.028577161982900723
-0.010845630504257853
0.01587530379343366
0.03840424432269021
0.03196325846208564
0.026000268011951183
0.028085920177003787
0.04798113342528332
0.017095258763354604
0.03199213260121578
0.02582293784714179
0.02850737440522519
0.03659775582356056
0.038741301893134794
0.05813828097106799
0.04815132900721397
0.04614961076800389
0.0382727295286143
0.05299382619911172
0.06039063023610092
0.0840705282359478
0.042580816494902446
0.03545784797316451
0.04942369905831498
0.059168660862635364
0.07300578250487322
0.10682528011407177
0.04706003319975818
0.055885656509593123
0.055505641783599624
0.06944627993788619
0.08900071532908388
0.10664459679135224
0.04599208637214908
0.05051699780049887
0.06422766709517819
0.0721050836978622
0.10037021741894242
0.11428064086460449
0.03590272834308503
0.06118757802507557
0.06453263854212177
0.08729712448460755
0.11244973777101902
0.11064518838572107
0.034589833786415225
0.06550308832021912
0.07723574385980728
0.0890241791013762
0.11711271081719893
0.12883659527506258
0.03379502989964424
0.06154947914701234
0.08335559346132287
0.10104224865772429
0.12410935117690047
0.13460807509167538
0.03666648748766835
0.05645553914212639
0.08867765439995565
0.10860448664273137
0.12901042489419426
0.14242114253302895
0.03656103778245248
0.06550691506294318
0.10444952579814015
0.12408108956055108
0.1328244541361624
0.13659388582953952
0.033073347864406584
0.06761524750017692
0.09835592798427467
0.12333908399002186
0.1391777812796885
0.12048921767633158
0.036385707429622535
0.05956455426727128
0.10446351364311177
0.12741448633328778
0.16593981438179237
0.13687528210203148
0.36679598711105416
0.5726427434481227
0.7189423778884362
0.8305469263536212
0.9205606383707248
1.0341008582865845
1.081027624908763
1.1357924393046892
1.1988507239205093
1.2476067191769993
1.3061162459214073
1.3136600779137946
1.3544413459599363
1.3477292369767855
1.3692407108797358
1.3820038309792764
1.3723282621686912
1.355611247648966
1.3521412900480323
1.3274028929287807
1.3372455807665267
1.349621884644282
1.3151072304964515
1.2944743376614651
0.2580810022545965
0.4591274770351631
0.649976318774586
0.7760540327749141
0.8557109026255119
0.9609998926593355
1.0392431549562695
1.0644429746904673
1.1697168018305035
1.1709166217978753
1.2078365789132868
1.2623781165404488
1.2879937219845112
1.265264358361855
1.2890103807376427
1.3269726181383912
1.3035196150068717
1.3132345053527386
1.302046510574368
1.3390002752112495
1.3022625687686462
1.3149951994221527
1.3044849237223541
1.2652304458205497
0.17547070274629456
0.343671716501799
0.5130292869994812
0.6498937178351312
0.762148787308616
0.8716082083643939
0.9570136805069771
0.9960825443919722
1.0867942827518118
1.1407013551239793
1.1440294946788114
1.165651770196986
1.1853493601390506
1.2034735785705137
1.231416692135894
1.2602045978393563
1.2420915023815302
1.230175032571673
1.2422493686659688
1.2319049278549725
1.2755882910812397
1.2198763457972768
1.2433760329867478
1.237451393946267
0.12507942659313692
0.22732725545179555
0.3715211234311147
0.5466848164772578
0.6246707071429893
0.7451625271317048
0.8426683507140893
0.8712888902080371
0.9244284707803707
0.9976125357822675
1.0109838153719408
1.0447080861954336
1.093551018215272
1.1080631393090536
1.1184139665820976
1.1381771715839601
1.1379506517021205
1.1224461394982552
1.1407025436897984
1.1441993582640735
1.1691600867210825
1.1601757040282912
1.1637110900036511
1.1720316152566161
0.0777537712989973
0.1458953505020072
0.2880699576946154
0.3708008295152214
0.5105573395128571
0.6092186804978756
0.6794388267074719
0.7518136303014822
0.7741407589991159
0.8146646151732715
0.8513407047740011
0.8826431450007379
0.9204101670423873
0.933595952698745
0.9723240811208289
0.9779164669557575
0.9947188795331215
1.0181699512451374
1.03025228435794
1.0147803623783187
1.020465198796918
1.0438851841059824
1.0623874533999356
1.0573807748547275
0.0685742150698404
0.10952751275913264
0.17853819180074548
0.2700158586516813
0.38799194843892437
0.4611151883544937
0.5036274090891044
0.53373908904421
0.586350389912925
0.6447710533177495
0.6532634113384338
0.6879384036854843
0.7465515653570161
0.7650607103808889
0.8139778816736793
0.8261528879827329
0.8624556339059837
0.8569624462445148
0.8883868005566115
0.896941695022843
0.9107519900889018
0.910223685030102
0.9226671288855703
0.9300008786035958
0.03891800669393819
0.09035292671470929
0.11710355349117596
0.18037038391822324
0.2784898997919162
0.33905737693740434
0.32248159580031355
0.37212954906866724
0.3805090808828848
0.4384800546963583
0.476250173031313
0.5200724947539811
0.5589772223138392
0.5999793422292217
0.6202498402728445
0.6717580421580018
0.6852528998376808
0.7058827920659838
0.7398070280219502
0.738925671964173
0.7635388670043122
0.788856529385823
0.794871138238245
0.8210163979451872
-0.006031372329326712
0.0579087838142307
0.07638974497757389
0.12354739703570994
0.13858898892617177
0.18375641135551768
0.24486528633236637
0.1935368428985107
0.20919492150455998
0.2622586093646402
0.3432801392612298
0.3522856809109429
0.39619149401966114
0.437415206663722
0.4765056739531467
0.5037774090709882
0.5365553618004989
0.5662526255495246
0.60130002477427
0.6023406535013225
0.633539581564388
0.6669672904787316
0.6791640968016139
0.7084345725751511
0.0017859417985790493
0.003911565561497965
0.07032280044141381
0.053196820120870014
0.06370025899259157
0.07265922854883411
0.06751689308643094
0.10958064377180898
0.11331868219769314
0.14248826751937926
0.2090182174139288
0.2238426024249076
0.24466206575662164
0.3031188261440356
0.3483881588497152
0.38816165770804
0.38404467836904266
0.43800725581870725
0.4785832748475962
0.5030518125984259
0.5203715451517251
0.5594358270466036
0.5759676718654549
0.6191755268310704
0.007431205914717576
0.01679785271919354
0.025289955051357782
0.03302572650739877
0.025722594352133643
0.018618021886845915
0.015320797558393884
0.007658576255082039
0.011261326929298043
0.024976384952893893
0.07508978680641176
0.1453460216123007
0.12293505312781505
0.1679904294543645
0.24267380256000393
0.3005899101120014
0.2814894551085667
0.33884022760094623
0.3614985183644198
0.3832201456268426
0.44467961190543004
0.4599894866605402
0.5195034339808253
0.5613537070864607
0.04006033612365989
0.07008290351948454
0.06840826794390331
0.04891277228758606
0.036072946873355494
-0.009638767844877605
-0.05753775879177969
-0.024695120664051107
0.02875869287197319
-0.0015645947571705232
0.030053063857427675
0.09815374720946535
0.15249125638859173
0.14455071153429921
0.1409786814534869
0.15117349899866184
0.23147725200252212
0.26754938158033437
0.3099818061953932
0.33153482539761014
0.3498671582530052
0.44080108929048567
0.47030828673746494
0.5395118548744477
0.07942970201373833
0.09319344356619952
0.07708639877445844
0.011682309945379221
0.025828077236799918
-0.009962840751246427
-0.01735405175496496
0.002853168003483453
0.006490743194836446
0.016547528391316124
0.09784119026075144
0.04957270689593851
0.08925027989360212
0.041524448834003636
0.1250940798031085
0.14208920278926385
0.16187683957041288
0.21305129395095668
0.23687578704720347
0.2774433877430813
0.3575428286759744
0.4381906488164974
0.5063294441754298
0.5774157532481776
0.07306837251317666
0.10380973154276829
0.09278981571000422
0.0620463237726695
0.033082830918445216
0.018722511924087692
-0.002421411484706537
0.020932409429279875
0.04435196753616877
0.05867554748967885
0.04782385644394682
0.09625060613333825
0.1087024915286694
0.1089602125832193
0.20646464919283536
0.19940212926099854
0.16254841413361554
0.23253255577430987
0.26557438658477495
0.33800013072269774
0.42914416109318865
0.4768117917732827
0.5486118361075063
0.6131130566561172
0.0983826234905083
0.08516987026627043
0.11566133618638286
0.08420369728727162
0.03219929796683274
0.07663017977074704
0.07747157610731337
0.09810764465751898
0.14843219546814868
0.12324802273669788
0.1674778747146327
0.16484532135509777
0.24329624741024125
0.15707006822727476
0.1958716116369703
0.21795852378960978
0.2657248618440219
0.2591572630588247
0.3784981964502181
0.41603127711993215
0.48514048037326285
0.5810491321626982
0.6627778637582323
0.7253891505738965
0.11327105042354352
0.10668389287451419
0.1301722452034857
0.09712736309392045
0.06766567956087222
0.09846607407377417
0.11176354388342158
0.19954096860856319
0.1930936380674696
0.21579965638730025
0.2111017673059642
0.24035232899614534
0.2518972210728634
0.3111987797138933
0.24621778142037676
0.3387850462295897
0.36315694794572884
0.42764954306075
0.47882170571084337
0.5447329689432442
0.6456634124177545
0.7227955127961505
0.758024682198017
0.8162042940674039
0.10152201126426652
0.13166431094063746
0.11800408597327006
0.0857392724981717
0.14369648241589406
0.1277544692659639
0.21897238061036173
0.2413516210510669
0.24305585001885555
0.28951747762658575
0.2906188637094709
0.3216652757300099
0.3443542234410919
0.40506732590264993
0.38549193580433605
0.4431320412733216
0.5320078767505394
0.5522279595925053
0.6292829454056625
0.7108155800751208
0.7388777272664875
0.8514876443537158
0.8824104111151337
0.9524061999748508
0.1233858537147714
0.11125986968978019
0.1207333690150798
0.1403252271832358
0.14042613664733616
0.19526131739949404
0.26074488854967226
0.32414419794950644
0.2608632509221308
0.34765798490648114
0.3337822346784426
0.41259200603676305
0.4152307073390843
0.47608253201043815
0.5173431917809054
0.6037729114016845
0.6474454868550101
0.7243239176241612
0.7810675991275583
0.8535982989102406
0.9138763685470063
0.9742829028981256
1.0099682661784823
1.0521229976693633
0.12366906732623029
0.1450282334846188
0.12449685240297981
0.2057382452148555
0.2626368246005827
0.26720026739336245
0.31866842483463864
0.34977498442100974
0.38359972374452944
0.43641826227181946
0.4279154993511942
0.48752663628966064
0.5115548199706451
0.5778116326499207
0.6895931433210267
0.7612141329276143
0.8182641365035126
0.8737179004474882
0.9440292342869867
1.0050332893303184
1.0593407299415225
1.0969702046668024
1.1061086658655745
1.1488971294941464
0.1357765789805675
0.11934439588965229
0.18237920611442093
0.22838216105758613
0.2678375764847022
0.3002545039675306
0.3796933054110362
0.42653342238334757
0.46943536301508915
0.5218620973912105
0.5209377117404168
0.5846792164279263
0.6904203172764922
0.755679505651601
0.7903991790565688
0.896691769632058
0.9684093799510797
1.040003892218084
1.1027884697757724
1.1460449541491868
1.17199288539456
1.1925292152246896
1.2062437862662327
1.2106526016387515
0.14607750265623098
0.15908776881850706
0.20139770901267873
0.25882391767106705
0.34389241478234345
0.39969121788802786
0.43268723669852527
0.4708782473158092
0.5245380724459263
0.5617638223001548
0.5992582681033585
0.6945620851602891
0.77625874032473
0.89844237197232
0.9848389431127106
1.0616848985063094
1.1225244785860207
1.1801305556147375
1.2229791501587093
1.244115572711731
1.252539749414632
1.2720489347724055
1.2636964775498907
1.25415616107894
0.14309952930006492
0.21678878768432253
0.23829143014275234
0.31038662086337165
0.40069243342783245
0.4367811342947693
0.4913291653842621
0.5412084529491428
0.5962467596010146
0.653915491475603
0.7268924204329074
0.8509151880909994
0.9590653475912249
1.0334950432713184
1.1165865573142224
1.186691596980162
1.2327797964080838
1.2772833209668835
1.3039876938097232
1.318435919962363
1.3218393584632282
1.3127005488389187
1.2993109428620235
1.2818258568400451
0.1540122823081228
0.20657644223337657
0.293485490473417
0.39004093908008297
0.4626306760913693
0.48394116403675136
0.5510812881358138
0.6108755175416589
0.7134784075452916
0.7895171197398191
0.8811232555353832
0.9773330387872865
1.069176083695734
1.1698630656882398
1.2362026533657338
1.2894838706113434
1.3302474316341582
1.359965867622435
1.3709344655192077
1.3578951534588755
1.3401235195731624
1.3270408924493577
1.3050499052820665
1.2766470537690087
0.20031861707895338
0.2816544407139988
0.3404712816224784
0.423746950295674
0.5186625932000777
0.5755621874896668
0.6452908675548794
0.730950983314524
0.8032619996816251
0.9146641937979625
1.0053727679075075
1.1089317315897576
1.1975414300678233
1.271661656398134
1.3245495857760021
1.3676689439276979
1.384428836848299
1.39866945139606
1.3691455940155017
1.384763268590627
1.3466826193998895
1.3472584409125157
1.3017016230892282
1.2748712143922236
0.20817780782480433
0.3182828658360273
0.411612779814857
0.4619693046383614
0.5404459080803192
0.6765657465229837
0.7477117608372484
0.8339093979933782
0.9294114711043334
1.0253930185604965
1.1334704750025442
1.2207239803169434
1.299002686193168
1.3551635460546132
1.3737751451125804
1.3959720951091494
1.4215432068408964
1.418556915040294
1.376634013939161
1.3736508315045428
1.3615093499325743
1.319247875628604
1.2998154262589179
1.245081655015897
0.06309676734909447
0.1619206673294121
0.22299559819737932
0.174891811601335
0.13742776562198883
0.14455620138669334
0.1113363803583528
0.19666104554972422
0.21245063531082636
0.15937486769257156
0.1272896724856364
0.14640132938542683
0.132486382120803
0.20454614543839453
0.19408002953000675
0.1516926231881459
0.1390688022225935
0.17946706029135817
0.15236862996887826
0.2029951042219388
0.18462203286196585
0.1507210180116033
0.1688564506633437
0.21134958830086117
0.17361512286033998
0.207803048882205
0.1754925822775673
0.15456834929813834
0.1858468899517502
0.25592093500126356
0.19265338552391525
0.20357571056873208
0.1683044039242248
0.15373709919998738
0.18797897887992643
0.278596717307893
0.2075662953191189
0.2089158338908322
0.16688084611305204
0.1531890923960648
0.22331160828395846
0.3026245284196825
0.22286300236752174
0.2061471260252335
0.16151766776982568
0.16054854068435911
0.21143265808827266
0.3311990103811545
0.23394231602591203
0.20684561449733768
0.15883429974749722
0.1582845692589076
0.23403076947589646
0.35278157209742544
0.24493166575843692
0.20506699408716042
0.15802287724205344
0.1544983129196633
0.2477852825230516
0.36530542654763376
0.2515705109017348
0.20248588178393473
0.15500634548804137
0.15632217620877567
0.2420672882301028
0.39399009903226034
0.25774076683471087
0.20342770289724083
0.15893512743571914
0.15963577718961927
0.24381449954924297
0.3815318652326904
0.2572228246405474
0.20756975756472648
0.1581470504239565
0.15619480500864563
0.2381905061464914
0.3956536673762525
0.2575340614404811
0.20459639281872782
0.1644897494184669
0.16140175982828525
0.24967494554364333
0.4086675117811449
0.25435944836769475
0.2082951477937802
0.16437030413866127
0.15203359224908916
0.25548015572703275
0.4123342278471014
0.24599237575149735
0.2093162824993776
0.1692499019867538
0.15208574396925947
0.22173074304551096
0.39732213338269906
0.2401028989297471
0.21820312734822142
0.17671983085247306
0.15688937922946505
0.20995414705028606
0.39228262353376836
0.2316588704457642
0.22560642844010234
0.18924468161983515
0.1474286250390551
0.2140353289152022
0.3848556544187123
0.2183586472466338
0.23088339147594056
0.2091642820120586
0.15364181153218923
0.20172091879071327
0.3712478190482553
0.1964934799367859
0.23159262073294123
0.23178042535451773
0.1775434992287157
0.19398898135111653
0.3110017764758577
0.17482754981433218
0.22962057651048096
0.24511873609743837
0.18807852864382968
0.19148603861532204
0.27008105026024476
0.1536783378592976
0.21735410746621214
0.25842067905766014
0.2239440137370794
0.21373944014949903
0.22040262186941012
0.12893556393786076
0.1973738986911649
0.280590059383679
0.2577041642902653
0.27551174468305173
0.16690778750945906
0.07022267830139794
0.14394033158562206
0.25495753100945595
0.2442497863430674
0.41656862797171235
0.11336484676923597
0.22016974384971566
0.3422903493080476
0.4528460738294912
0.5829388112847933
0.6576394646853476
0.7506132171918237
0.841223877288534
0.9589036771608033
1.0558428338086163
1.1467317847198701
1.2363565026770622
1.3095871797865168
1.3629395467786296
1.4088987438875904
1.4208664870699566
1.4190759086651126
1.4268186727130838
1.4145120494830459
1.3909533330729589
1.3682855624487191
1.3279097212879951
1.3000104174542644
1.2714678149653016
1.2217740789173013
0.27888482114530594
0.3753116959080176
0.47345192879651443
0.6102169626225555
0.687678439408581
0.8079665655954754
0.9324303307250084
1.0540563667220977
1.1499488409082768
1.238193432532512
1.3239419545705322
1.3619423739344787
1.4134248373972969
1.4023886179059193
1.4323523401399314
1.4084212530271325
1.4156581672853106
1.4059677345037884
1.37390974643968
1.3535396796812893
1.316134426551262
1.27792933257227
1.2455318880568813
1.20011935597974
0.3373091804077375
0.450274270652268
0.5410721437423913
0.658216534394874
0.7864931001053171
0.9256321819218353
1.0322063698321466
1.1513927875512042
1.235690390586919
1.317316858394995
1.3830752477941608
1.4015844084347777
1.4272293435753145
1.438430609358433
1.4317193160028518
1.4175542539943244
1.4151394348240143
1.3792922674796144
1.333840585021371
1.3224651867847954
1.293249902671539
1.2499836585278306
1.2315696514583103
1.1829151907159636
0.36320664573544476
0.5030116091636125
0.632495056254805
0.742786484153048
0.8817310081780096
0.9984474346681911
1.117959259967909
1.213259236300383
1.2996925568249411
1.3577379497252315
1.4234185911760713
1.435044630078313
1.4384616431117836
1.4262756642935408
1.4232923046048969
1.3940788643406643
1.3851427135896612
1.3551529330274037
1.3426190939409444
1.3079172877797653
1.266204125176518
1.238596201496054
1.1992981416474429
1.1553391755471079
0.3869283089669408
0.5388974145969974
0.6726171406664083
0.805280619475992
0.9531104408554781
1.091226375403819
1.196042915844611
1.2978720093272447
1.3605087515796859
1.402491426242017
1.4125031979284095
1.403970836982945
1.413259469997742
1.4291704521256237
1.389219892291518
1.377924937848697
1.3597358869461424
1.3333912607474958
1.3091950220680035
1.2816439498313006
1.2509141339252476
1.2232765372138183
1.1890211462083147
1.139812624936713
0.4084177989783445
0.5664450663791629
0.7375942344301332
0.9030919200894696
1.0472435182506417
1.1767368396496618
1.259407992364031
1.3532856191228446
1.3761675910150069
1.4169839961644901
1.4339307829080574
1.4422271479159994
1.4167133383773678
1.4001366985234704
1.3839892249678476
1.3564933818940434
1.3239508998156428
1.31938860325566
1.2867530898829533
1.2701946576260217
1.2401235691566013
1.1943546500475846
1.1708197919371357
1.1269498021920294
0.46349539748627056
0.6119966531444162
0.8096865440414991
0.9769451849346756
1.127055782143011
1.250566943887123
1.3092240598868767
1.3719756619429813
1.3952949529439684
1.4256446085241128
1.427150548702123
1.4264830155519146
1.3959063523813202
1.359696469274982
1.3695875856732105
1.3500591219250735
1.3230877047831169
1.3072230783023848
1.2600456082184037
1.2510952859353266
1.2237065512099732
1.1854765454466765
1.1518266735443585
1.111173984911597
0.4899456092769246
0.6907789636861441
0.8910472347577378
1.0673744971583172
1.1962203899232986
1.2916639460443777
1.3599729010338373
1.3914561052836683
1.4329364300740393
1.4084931531610665
1.4128286237593661
1.3925185539315608
1.3846172515321538
1.368202032789419
1.3273744873216657
1.3198180684457375
1.2997941751777413
1.2833070056968803
1.2474732987373491
1.2262000243051543
1.2121317670361897
1.1708129235410163
1.1384627798148073
1.094780046185531
0.5132453833928078
0.7294210372461765
0.9603155552280173
1.1198653697585026
1.244219583628599
1.3375989420361543
1.3653462480827105
1.384631019791227
1.398580213182296
1.4124030130092378
1.389301023157785
1.3856148033776678
1.358589793234177
1.3443927509036406
1.3287274182084194
1.3004666745781392
1.274711203789325
1.2612298724697273
1.2264709021474431
1.2125958296104584
1.185996921059041
1.1542014958442048
1.1214523872699103
1.0819480345427062
0.5615308492418215
0.8009618592165729
1.0249054758869025
1.1778414787386853
1.2889398145049111
1.3517037060541703
1.3886206740602443
1.3858270722910517
1.3932365221198117
1.3607253334957712
1.375346986002186
1.3678521177330687
1.3394968951501447
1.3236864687442746
1.3141283948955393
1.2987192404273382
1.2681657649620912
1.2442243732175469
1.2236466183135875
1.2028802428907808
1.176963074520024
1.136059843515758
1.109537765548214
1.071008373496562
0.6066304649503188
0.8629683301783531
1.0971090513197168
1.2331765609763228
1.3255704960062433
1.347570828618291
1.410186107829059
1.3745318416873036
1.3868110070121211
1.3668042005569443
1.3707566462973593
1.340331151858598
1.3174996544771087
1.3124910665373657
1.2911386464634727
1.2614350485640307
1.260520022844938
1.2355340257063645
1.1999107036566117
1.1837984209162613
1.1510005093562112
1.1288130065564324
1.096664788872085
1.0585202262115447
0.6376006262694526
0.9169981656853791
1.1400934127789517
1.2923278039729154
1.3345225097237248
1.3700618332484384
1.400825460279684
1.3865784844423859
1.3794939070187993
1.3584772810610786
1.3444492688128662
1.3212670709383056
1.3080795350675165
1.2876055572676317
1.272997484447358
1.251650167672305
1.228041498138545
1.2122766990927523
1.1831158492184521
1.163026395534291
1.1433385268590228
1.1218437830752024
1.0878054948656402
1.050198147582761
0.66594389850961
0.9784367721043479
1.1848885103699183
1.2991846031273526
1.3686218482072903
1.3634206319376134
1.38750396276289
1.3632950380366546
1.3457104039300325
1.3294257852471014
1.3248629574309048
1.2984172493205244
1.2776182686808135
1.2712922481756348
1.2527044411775665
1.2355260783543227
1.213172808398991
1.1923256114107768
1.1780585507951655
1.156380109623804
1.1275523310068736
1.1044704979284803
1.0774134042823993
1.041619624891975
0.7064934494945295
1.0485402075119388
1.2473836739145898
1.3196017481840314
1.3495990179618118
1.354094823704316
1.3792960773658252
1.344488704792328
1.329195023983451
1.3098926313918053
1.2914468841324218
1.277980642976031
1.2657543227558092
1.2476694139461424
1.2338013576331286
1.2195083322581146
1.1973309507133971
1.176761712953144
1.1632122429943113
1.1468096421655622
1.1104328424516932
1.097582489027012
1.0643907541257143
1.0325506801779232
0.7438771313022919
1.0890012667235256
1.2495985439002837
1.3150170578185496
1.349311016323269
1.3360542263253308
1.3383712467682138
1.3252184972080308
1.3136026358385724
1.302670799477708
1.2812768540417432
1.261421568952169
1.2361749230756294
1.2353498923346782
1.2137056969174902
1.198985896052298
1.1913917001620913
1.1680344302729704
1.152122288468227
1.128191743000698
1.1018327921949824
1.0832171796008443
1.0536750419572611
1.0247908133732788
0.774911310047065
1.143953979410497
1.2462487436332288
1.3351141116749614
1.3289705926438151
1.322326007838467
1.309864919871203
1.2908048915312544
1.2968960757815728
1.2696496298680189
1.252423682839304
1.2388194720202357
1.2346618639405895
1.214523770661375
1.2010576684995928
1.188496084166202
1.1613284929022867
1.147263747042722
1.1320032052008935
1.1117557909079803
1.092038581642818
1.0740084572064474
1.048345695564778
1.0168460826219603
0.8165829064882915
1.1602098171450121
1.3031225935839783
1.3500931107105028
1.3364383737502001
1.3087815399624914
1.3048133982377985
1.2702499343960914
1.2670386904067437
1.255023346283767
1.2372916976658086
1.2222116173339432
1.2013150127526293
1.196024234034259
1.1856909060192267
1.1638449675663805
1.1553444237507229
1.1400680724098633
1.1199630688063305
1.1033939010838185
1.0849018799574977
1.063297716268601
1.0412062975911045
1.0120937387416837
0.8268665274306548
1.1820743069123776
1.2824822070099189
1.3059398170209056
1.2934999592160619
1.2934452829973742
1.262679887287033
1.2514428182011816
1.2368919135239085
1.2255532420648567
1.2036708330918502
1.1987785079288942
1.182955568004293
1.1805539054745595
1.1631770458446533
1.156395697300882
1.1393012947063712
1.122706906743968
1.108015396591842
1.0941345506019866
1.0768171747997775
1.054775887818285
1.032255926886987
1.0087783363865235
0.845825028662432
1.176018130543478
1.2679950592174911
1.2610876167286116
1.2607495099365638
1.2467674654217822
1.2435799015779172
1.2217528072897643
1.2071419393673488
1.2010072991922809
1.1943383892923174
1.1814507845472368
1.1695124493881863
1.1566482773571625
1.14866036158085
1.1294761748256466
1.1249680831654119
1.111347714203344
1.0962822068485254
1.0822023609184226
1.067750389018178
1.0484674120839035
1.0279510450467109
1.0032752207182682
0.8711910411817446
1.18173114216547
1.262025838528465
1.2497081786350261
1.2413598940589519
1.2323232254015541
1.2053910173805582
1.1952175440544606
1.1814947489693988
1.1784382219411478
1.161489835846533
1.1547658898541298
1.1520856612975514
1.1417726049711685
1.1263016552408462
1.1211643706060848
1.1108602606792304
1.0984727186754417
1.0833499561239375
1.0712592871254505
1.058083918283462
1.0437507230413983
1.0219873720743278
0.9985542147586434
0.8862958827840893
1.1652685278285073
1.213194888999287
1.2175912915893996
1.177971244286993
1.1813589817093584
1.17766275335375
1.1607390754282667
1.1552995613815884
1.1442547522919533
1.1453004115606196
1.1323591313881476
1.1248044214856305
1.116868854579428
1.1114829246852083
1.1063305275008688
1.0946341418756214
1.0851229868309222
1.0750759952207443
1.0611269149480618
1.0478202912348311
1.0347188561915324
1.015598290721835
0.9937749964429317
0.9055978571923455
1.1401830651318645
1.1677560481693203
1.170024876675986
1.1678847098488307
1.1418393468808223
1.1319848140221263
1.1248995918016578
1.1255101485900305
1.1162978496166527
1.1155381852013257
1.1126298370690095
1.1047554588040538
1.1000320880365593
1.0978776268395964
1.0895805547509572
1.078360532727764
1.073339107924903
1.0647399806069229
1.0510858190558243
1.0425698981156573
1.0280933136186041
1.0116277659134227
0.9923530109840866
0.9330453300278336
1.108370098526386
1.1173476137689513
1.100147535634743
1.1003263074700944
1.0970824255586484
1.0934454012152166
1.088287276541574
1.0899245014398302
1.0880730106801126
1.0908394719464236
1.0824416352064161
1.0848698967621913
1.0784394346761603
1.0767669110505924
1.070721923554365
1.0687347937833922
1.0620373972712973
1.0506928872531482
1.043760442213228
1.036303132161692
1.024930757499701
1.0068447405661614
0.9923356541499302
0.9176337130429794
1.0285303357138518
1.0441897413308026
1.0424037282457892
1.05133066938921
1.0528575825247852
1.051674691151814
1.0529450280665522
1.0539142861390116
1.0571006000779901
1.0599879364622438
1.0636219037003976
1.0668620295766367
1.065622177255875
1.0635673310218514
1.0621064224323864
1.0554110569622608
1.0467922980082587
1.0439267666020973
1.0379853824665506
1.0277807815758164
1.019551359186398
1.00695897800669
0.9916419184647566
0.061526189075066136
0.10230750446394914
0.12014240873356083
0.15961814424024368
0.16122800975352758
0.4322639449652577
0.0721392510608599
0.09978809682203645
0.12111038011717623
0.13837170492863252
0.15087173930847397
0.2605083971605558
0.07520688774979722
0.09745356279849403
0.12448203097645938
0.13248441456390417
0.1502773208599783
0.24524527021782835
0.08117276454422243
0.10433165815893451
0.121078896489594
0.12411903904223551
0.15302901906794203
0.23650606903235966
0.0859798086751996
0.09503635404663324
0.11789643637227515
0.12293300348988115
0.13963692636932049
0.24179247256485423
0.09310752151587665
0.10684068051445901
0.12414941476610927
0.11604602904872488
0.14427798815173834
0.21631921785863487
0.09794571795089362
0.10015009336548081
0.11561416671324287
0.11607957050915438
0.14365009631238307
0.21931561718203801
0.09763638506851466
0.10678179219361829
0.11112738411978476
0.10946674629650494
0.13262175997974568
0.20224245171368968
0.09700847398340398
0.10258452086437699
0.11041871696301087
0.11855754484173392
0.161890957119274
0.20877232296419973
0.09224598565794397
0.10463069966590925
0.11700729142396346
0.12262396545761262
0.151290803699734
0.2040860512951464
0.09174497841578425
0.10825537936688033
0.11627856762676947
0.12552373139853193
0.16831790970675967
0.21458291845596614
0.09191046290348216
0.10692369638953786
0.11132127626283969
0.1410198181449785
0.16689010920412833
0.22746010922037058
0.09553391224338253
0.09994399874198287
0.11766119815230652
0.14163799705923213
0.18760354052704634
0.24502996301548016
0.08690330702714803
0.10890510447142575
0.1261811117967575
0.16283073849589877
0.20335019507119692
0.2670767731955533
0.09136782465927654
0.11341737539719576
0.13666766085815119