/*--------------------------------*- C++ -*----------------------------------*\
  =========                 |
  \\      /  F ield         | OpenFOAM: The Open Source CFD Toolbox
   \\    /   O peration     | Website:  https://openfoam.org
    \\  /    A nd           | Version:  11
     \\/     M anipulation  |
\*---------------------------------------------------------------------------*/
FoamFile
{
    format      ascii;
    class       volScalarField;
    location    "0.56";
    object      epsilon;
}
// * * * * * * * * * * * * * * * * * * * * * * * * * * * * * * * * * * * * * //

dimensions      [0 2 -3 0 0 0 0];

internalField   nonuniform List<scalar> 
2880
(
1.82525
1.78822
3.00953
4.21531
5.26236
6.12297
0.848851
1.14801
1.96321
2.87501
4.22564
5.89365
0.230089
1.1039
1.79503
2.51913
3.4093
3.93582
0.25425
1.12323
1.72985
2.31515
2.87051
3.09173
0.270864
1.14615
1.67401
2.14278
2.5321
2.69455
0.280856
1.16457
1.61358
1.99167
2.30308
2.48938
1.2793
1.16956
1.54933
1.86287
2.13336
2.36427
1.3774
1.16545
1.48347
1.74919
1.99972
2.27745
1.45425
1.15364
1.41754
1.64594
1.88666
2.21094
1.50556
1.13628
1.35245
1.54992
1.78573
2.1572
1.52995
1.11456
1.28872
1.4591
1.69233
2.11401
1.52833
1.08929
1.22659
1.37228
1.60401
2.08162
1.50037
1.06103
1.16623
1.28889
1.51961
2.06151
1.4493
1.03015
1.10762
1.20878
1.43888
2.05582
1.3847
0.99667
1.05044
1.13219
1.36148
2.0673
1.30602
0.955722
0.994079
1.05923
1.28705
2.09815
1.21397
0.897999
0.937302
0.989853
1.21538
2.14688
0.280811
0.802627
0.87981
0.924207
1.14637
2.20694
0.273188
0.717613
0.824375
0.863392
1.07965
2.26422
0.261019
0.651573
0.777062
0.810861
1.01583
2.31243
0.243764
0.615678
0.748801
0.775957
0.959084
2.354
0.221348
0.635864
0.763224
0.783096
0.925926
2.41253
0.82369
0.830817
0.905885
0.905475
0.97611
2.56976
1.88704
1.94515
1.93129
1.77486
1.53433
2.45648
2.9507
1.94908
1.74892
1.78264
1.98674
2.32435
2.73835
3.1207
3.33116
3.30942
3.02126
2.54485
2.08627
1.70843
1.41498
1.18775
1.00637
0.856062
0.727441
0.615744
0.518758
0.435383
0.365916
0.313941
2.74779
2.011
1.88148
2.00721
2.32674
2.78322
3.27972
3.64486
3.72692
3.50489
2.98809
2.38177
1.8795
1.5066
1.23349
1.02842
0.86578
0.729754
0.613394
0.513457
0.427895
0.355261
0.295541
0.255177
2.5933
2.15439
2.13132
2.3815
2.83778
3.41541
3.94569
4.18479
4.05293
3.5577
2.80152
2.13737
1.64979
1.30842
1.06072
0.872446
0.722329
0.598425
0.495484
0.410234
0.340351
0.284285
0.242139
0.217608
2.54079
2.35808
2.49169
2.90213
3.51948
4.19017
4.64804
4.61323
4.17961
3.31366
2.47359
1.84391
1.41721
1.12169
0.903277
0.734405
0.597842
0.486044
0.395241
0.322593
0.265914
0.223865
0.196068
0.182859
2.55206
2.60899
2.94648
3.56382
4.34707
5.01479
5.18475
4.80441
3.92385
2.89151
2.09488
1.56343
1.20993
0.957056
0.765211
0.613393
0.491506
0.394375
0.31802
0.259197
0.215431
0.185012
0.166677
0.159139
2.59052
2.89774
3.48701
4.35066
5.25329
5.69872
5.42195
4.62459
3.39555
2.40618
1.75064
1.32604
1.03101
0.81017
0.637638
0.501768
0.395776
0.314288
0.252816
0.207657
0.17588
0.155228
0.143924
0.14015
2.64973
3.21815
4.11394
5.23641
6.09235
6.01439
5.36992
4.012
2.80077
1.99498
1.48152
1.1313
0.873184
0.674958
0.521548
0.403809
0.314691
0.248428
0.200289
0.166457
0.143916
0.130268
0.123696
0.122233
2.72059
3.57918
4.83978
6.14973
6.56109
6.07618
4.75475
3.29818
2.30889
1.68308
1.26316
0.958809
0.728711
0.553187
0.420345
0.321197
0.248414
0.196019
0.159254
0.134428
0.118667
0.109817
0.106236
0.106062
2.80557
4.00505
5.66771
6.89638
6.70352
5.66056
3.94794
2.72643
1.95307
1.44164
1.07669
0.804683
0.599971
0.447107
0.33456
0.253002
0.194896
0.15433
0.126789
0.108888
0.0980798
0.0925572
0.0909221
0.09143
2.91373
4.53088
6.55041
7.20281
6.55337
4.83311
3.29749
2.31959
1.68358
1.23742
0.909585
0.6661
0.486759
0.356595
0.263542
0.197964
0.152455
0.121505
0.101092
0.0882879
0.0809816
0.0776966
0.0772687
0.0781558
3.05797
5.19029
7.32907
7.24115
5.97185
4.06713
2.81997
2.01648
1.46051
1.05681
0.760397
0.544838
0.390597
0.281951
0.206401
0.154454
0.119203
0.095752
0.0806681
0.0715267
0.0666371
0.0648128
0.0650593
0.066189
3.25251
5.99254
7.68446
7.05656
5.14865
3.52754
2.48355
1.77271
1.26356
0.893896
0.628161
0.440565
0.310444
0.221387
0.160979
0.1203
0.0931863
0.0754592
0.0642926
0.0577463
0.054494
0.053595
0.0541893
0.0554572
3.50926
6.87114
7.74778
6.5858
4.51773
3.13993
2.21348
1.55756
1.08519
0.748568
0.513661
0.353109
0.245094
0.173095
0.125297
0.0936494
0.0728379
0.0593992
0.0510669
0.0463255
0.0441503
0.0438057
0.0445798
0.0458524
3.84429
7.64069
7.63443
5.99175
4.10331
2.85345
1.98341
1.36275
0.923963
0.620779
0.416293
0.281007
0.192551
0.134957
0.0974081
0.0728693
0.0568768
0.0466208
0.0403178
0.0368062
0.0353061
0.0352532
0.0360822
0.0372979
4.2903
8.11513
7.51529
5.47248
3.773
2.6019
1.76932
1.18243
0.77939
0.510354
0.334983
0.222469
0.150779
0.10504
0.0756612
0.0566453
0.044311
0.0364077
0.031547
0.0288504
0.027735
0.0277796
0.0285694
0.0296957
4.88191
8.36619
7.32594
5.13146
3.52391
2.37817
1.57031
1.01777
0.651968
0.416527
0.268064
0.175478
0.117816
0.0816575
0.0587068
0.0439502
0.0343882
0.0282279
0.0243905
0.0222137
0.0212706
0.0212687
0.0219227
0.0229294
5.60359
8.51188
7.1398
4.92454
3.30339
2.16137
1.38157
0.868303
0.541204
0.33795
0.213666
0.138101
0.0919579
0.0634318
0.0454924
0.0340062
0.0265481
0.0216904
0.0185869
0.0167308
0.0158089
0.0156247
0.0160326
0.0168606
6.39192
8.64862
7.0631
4.74471
3.08067
1.94754
1.20466
0.734863
0.446383
0.272973
0.169879
0.108585
0.0717717
0.0492705
0.0352147
0.0262336
0.0203777
0.016507
0.0139471
0.0122938
0.0112985
0.0108131
0.0107958
0.0112831
7.2839
8.90837
7.05553
4.55556
2.84813
1.73783
1.04099
0.617321
0.366178
0.219776
0.13491
0.0854189
0.0560945
0.0383227
0.0272686
0.0202059
0.0155749
0.0124642
0.0103288
0.00883102
0.00774657
0.00691239
0.00622827
0.00590105
8.52897
9.40473
7.04754
4.33026
2.60161
1.53348
0.891273
0.514936
0.29899
0.176564
0.107157
0.0673313
0.0439833
0.0299181
0.0211891
0.0156047
0.0119212
0.00941255
0.00763928
0.00632094
0.00526236
0.00431285
0.00334304
0.00190212
10.2357
10.1619
6.93008
4.04802
2.34186
1.33732
0.756148
0.426713
0.243179
0.141684
0.0852295
0.0532575
0.0346625
0.0235058
0.0165899
0.0121606
0.00922943
0.00722171
0.00579066
0.00471604
0.00384689
0.00307191
0.00229581
0.00127372
12.3819
11.0112
6.60512
3.70571
2.07463
1.15207
0.635582
0.351349
0.197122
0.113651
0.0679421
0.0423111
0.0274854
0.0186117
0.0131146
0.0095929
0.00726109
0.00566394
0.0045275
0.00367778
0.00299386
0.00238575
0.00178786
0.00105959
15.3245
11.4626
6.14204
3.31335
1.80467
0.97919
0.529065
0.287489
0.159336
0.0911933
0.0543162
0.033775
0.0219293
0.0148458
0.0104574
0.00764521
0.00578313
0.00450836
0.00360229
0.00292537
0.00237962
0.00189403
0.00142629
0.000897028
19.8874
11.5061
5.49592
2.8739
1.53904
0.820937
0.436229
0.233901
0.128528
0.0732467
0.0435645
0.0270886
0.0175947
0.0119149
0.00839321
0.00613491
0.00463911
0.00361511
0.00288741
0.00234361
0.00190492
0.00151702
0.00115448
0.000771641
2.55042
7.32858
10.2061
11.0604
10.8653
55.9731
0.961745
3.25913
4.75621
5.77269
7.68014
15.9418
0.281027
2.4487
3.40219
4.23659
5.58641
8.57268
1.54017
2.17178
2.81844
3.50047
4.4506
5.83193
1.92511
2.05396
2.49159
3.03779
3.72696
4.46622
2.28653
1.99793
2.28006
2.70629
3.20699
3.62524
2.59394
1.96257
2.13052
2.45287
2.81208
3.04525
2.8347
1.93129
2.01506
2.25154
2.50373
2.62031
3.00539
1.89536
1.91918
2.08856
2.25962
2.29861
3.10766
1.85178
1.83633
1.95596
2.06564
2.05071
3.14662
1.80134
1.76484
1.84891
1.91254
1.85941
3.13016
1.74728
1.70534
1.76461
1.79402
1.71348
3.06918
1.69394
1.65904
1.70174
1.70604
1.60529
2.96475
1.644
1.62756
1.66125
1.64605
1.52988
2.80917
1.59793
1.61341
1.64427
1.61496
1.48515
2.6034
1.55667
1.61566
1.64927
1.61055
1.47121
2.35188
1.5218
1.63911
1.6819
1.63725
1.48888
2.06143
1.4944
1.68817
1.7485
1.70334
1.54752
1.74168
1.47565
1.76951
1.86053
1.82402
1.66485
1.40016
1.46725
1.89387
2.03966
2.02939
1.88136
1.1988
1.46927
2.08053
2.33077
2.38248
2.29925
0.256991
1.50134
2.37525
2.83684
3.03457
3.2159
0.957964
1.69375
2.96882
3.88578
4.35449
5.70031
2.17654
2.84936
4.82867
6.87223
7.05611
6.19008
23.8532
9.31125
4.53444
2.41022
1.28817
0.679461
0.356569
0.189417
0.103571
0.0589363
0.0350661
0.0218245
0.0141864
0.00960986
0.00676854
0.00494507
0.00373697
0.00291019
0.00232321
0.00188541
0.00153382
0.00122719
0.000950089
0.00067441
11.9534
6.44853
3.59964
1.98514
1.0636
0.55642
0.289461
0.152953
0.0834941
0.0475484
0.0283361
0.0176606
0.0114882
0.00778224
0.00547833
0.00399907
0.0030195
0.00235016
0.00187638
0.00152486
0.00124512
0.00100561
0.000796622
0.000599632
7.6029
4.90875
2.90673
1.62857
0.870696
0.452261
0.234036
0.123441
0.0674469
0.0385004
0.0229963
0.0143535
0.00934112
0.00632527
0.00444861
0.00324405
0.00244773
0.00190538
0.00152358
0.00124272
0.00102214
0.0008374
0.000681909
0.000542495
5.52595
3.88358
2.36105
1.33021
0.708464
0.366063
0.189029
0.0997898
0.0546803
0.0313151
0.0187508
0.011718
0.00762646
0.00516029
0.00362535
0.00264152
0.00199316
0.00155389
0.00124714
0.00102412
0.000851852
0.000711085
0.000596843
0.000499139
4.28697
3.11272
1.92167
1.08399
0.575
0.296127
0.152965
0.0809739
0.0445499
0.025606
0.0153679
0.00961225
0.00625411
0.00422774
0.00296746
0.00216181
0.0016334
0.001278
0.00103243
0.000856496
0.00072322
0.00061717
0.000534183
0.000466354
3.4536
2.52779
1.57088
0.884348
0.467184
0.240219
0.124326
0.0660685
0.0365168
0.0210635
0.0126666
0.00792646
0.00515454
0.00348144
0.00244273
0.00178134
0.00135029
0.00106306
0.000867173
0.000729267
0.000627064
0.000547975
0.000488265
0.000441582
2.85314
2.08112
1.29297
0.72458
0.381188
0.195931
0.101694
0.0542801
0.0301406
0.0174416
0.0105048
0.00657494
0.00427326
0.00288487
0.00202535
0.00148089
0.00112885
0.0008969
0.00074113
0.000633639
0.000555868
0.000497378
0.000454733
0.000422866
2.404
1.73813
1.07382
0.597793
0.313138
0.161006
0.0838378
0.0449538
0.0250688
0.0145466
0.0087715
0.00549027
0.00356711
0.00240878
0.0016944
0.00124473
0.000956705
0.000769413
0.000645831
0.00056242
0.000503595
0.000460609
0.00043032
0.000408759
2.06211
1.47313
0.901395
0.497648
0.259497
0.133504
0.0697374
0.0375567
0.0210218
0.0122261
0.00737894
0.00461909
0.00300158
0.00202954
0.00143282
0.00105998
0.000823705
0.000672338
0.000574392
0.000509837
0.000465507
0.000434041
0.000412627
0.000398203
1.80061
1.26726
0.765776
0.418678
0.217248
0.111823
0.0585749
0.0316658
0.0177807
0.0103606
0.00625806
0.00391893
0.00254896
0.00172805
0.00122677
0.000916123
0.0007216
0.000598998
0.000521303
0.000471341
0.000437961
0.000414977
0.000399918
0.000390418
1.60022
1.10701
0.659055
0.356368
0.183929
0.0946795
0.0497021
0.026953
0.0151743
0.00885631
0.0053542
0.00335591
0.00218698
0.00148885
0.00106501
0.000804687
0.000643756
0.000544066
0.000482221
0.000443416
0.000418218
0.000401445
0.000390935
0.000384811
1.44752
0.982436
0.575004
0.307075
0.157605
0.0810663
0.0426129
0.0231629
0.0130691
0.00763941
0.00462404
0.00290299
0.00189775
0.00129952
0.000938522
0.000718863
0.000584884
0.000503332
0.000453771
0.000423394
0.000404243
0.000392001
0.000384757
0.000380917
1.33323
0.886142
0.508777
0.267959
0.136737
0.0701966
0.0369141
0.0200971
0.0113608
0.00665193
0.00403329
0.00253861
0.00166698
0.00115009
0.000840077
0.000653227
0.000540789
0.000473493
0.000433355
0.000409266
0.000394528
0.000385552
0.000380686
0.000378334
1.25101
0.812631
0.456634
0.236861
0.120072
0.0614536
0.0323004
0.0176016
0.00996803
0.00584821
0.00355475
0.00224566
0.00148331
0.00103268
0.000763972
0.000603505
0.000508176
0.000451982
0.000418992
0.000399541
0.000387973
0.00038135
0.000378125
0.000376691
1.1968
0.757851
0.415663
0.212115
0.106672
0.0543612
0.0285347
0.0155564
0.0088269
0.00519226
0.00316692
0.00201056
0.00133775
0.000941098
0.000705777
0.000566411
0.000484542
0.000436879
0.000409231
0.000393159
0.000383839
0.000378867
0.000376599
0.000375704
1.16866
0.718887
0.383535
0.192515
0.0958112
0.0485484
0.0254316
0.0138676
0.00788721
0.00465561
0.00285274
0.00182257
0.00122327
0.000870531
0.000662086
0.000539453
0.000468028
0.000426793
0.000403039
0.000389346
0.000381549
0.000377583
0.000375854
0.000375226
1.16649
0.693732
0.358735
0.176826
0.0868935
0.043721
0.0228454
0.0124614
0.00710928
0.00421567
0.00259866
0.00167318
0.00113427
0.000817184
0.000630226
0.000520692
0.000457204
0.00042067
0.000399635
0.000387514
0.000380673
0.000377218
0.000375676
0.000375104
1.19209
0.680966
0.340154
0.164111
0.0794345
0.0396428
0.0206601
0.0112792
0.00646162
0.00385447
0.00239388
0.00155561
0.00106633
0.000778057
0.000608087
0.000508603
0.00045096
0.000417706
0.00039845
0.000387269
0.000380852
0.000377457
0.000375836
0.000375141
1.25069
0.679572
0.32704
0.153591
0.0730288
0.0361207
0.0187826
0.0102747
0.00591925
0.00355774
0.00222983
0.0014645
0.00101599
0.000750837
0.000594077
0.000502072
0.00044852
0.000417347
0.000399073
0.000388265
0.000381907
0.000378278
0.000376314
0.000375287
1.3515
0.689937
0.317614
0.144459
0.0673167
0.0329943
0.0171376
0.00941136
0.00546246
0.00331423
0.00209982
0.00139572
0.000980612
0.000733796
0.000587039
0.000500323
0.000449282
0.000419242
0.000401282
0.000390379
0.000383693
0.000379589
0.00037709
0.00037556
1.50964
0.712716
0.310311
0.135882
0.06197
0.0301304
0.0156668
0.0086598
0.00507597
0.00311529
0.00199872
0.00134615
0.000958255
0.000725695
0.000586167
0.000502709
0.000453068
0.000423239
0.000404998
0.000393576
0.000386234
0.000381389
0.000378149
0.000375958
1.74936
0.746155
0.302518
0.126962
0.0566919
0.0274235
0.0143252
0.00799976
0.00474863
0.00295455
0.00192281
0.00131357
0.000947591
0.000725753
0.000590921
0.000509307
0.000459758
0.000429343
0.00041026
0.000397911
0.000389592
0.000383745
0.000379563
0.000376551
2.10903
0.775782
0.28999
0.116676
0.0512411
0.0248051
0.0130858
0.00741811
0.0044731
0.00282774
0.00186959
0.00129662
0.000947862
0.000733531
0.000601482
0.000519991
0.000469468
0.000437704
0.000417227
0.000403536
0.000393909
0.000386791
0.00038146
0.000377449
2.50156
0.764845
0.267159
0.104097
0.0455091
0.0222601
0.0119421
0.0069093
0.0042459
0.00273292
0.00183836
0.0012948
0.000958933
0.000749314
0.000617817
0.000535017
0.000482486
0.000448615
0.000426178
0.000410706
0.000399413
0.000390732
0.000384023
0.000378801
2.13596
1.85634
2.59807
4.51309
5.8349
26.3142
0.902575
1.27953
2.27373
3.83504
5.30235
7.26815
0.240779
1.36072
2.33529
3.28724
3.71327
3.29874
0.26289
1.48434
2.30647
2.76441
2.67477
1.82125
1.18785
1.5904
2.18301
2.3666
1.99345
1.16292
1.41489
1.64122
2.04279
2.05074
1.54652
0.830568
1.66343
1.65562
1.9237
1.79635
1.24895
0.647048
1.89379
1.65914
1.824
1.60082
1.05214
0.53974
2.08529
1.66174
1.74525
1.45816
0.926185
0.477197
2.22887
1.66858
1.68889
1.362
0.852086
0.445582
2.32071
1.68238
1.65549
1.30718
0.818507
0.438805
2.36007
1.7031
1.64625
1.29043
0.818225
0.451149
2.35289
1.72982
1.65567
1.30174
0.846624
0.487673
2.30583
1.76179
1.68738
1.34824
0.90799
0.548179
2.25141
1.79755
1.73808
1.42859
1.0028
0.637468
2.17986
1.83066
1.80305
1.54062
1.13479
0.762963
2.07731
1.85331
1.87805
1.68215
1.30926
0.934817
1.93169
1.85784
1.96254
1.84629
1.53366
1.16705
1.73166
1.84106
2.05894
2.03251
1.8144
1.47961
1.47095
1.8045
2.16879
2.25574
2.15025
1.89923
0.280877
1.76509
2.31676
2.53777
2.54781
2.45242
0.255302
1.79093
2.58717
2.93233
3.07733
3.27897
0.966737
2.15328
3.29289
3.74814
4.00445
5.13677
2.24174
4.6041
6.63664
6.81123
6.46784
6.17643
2.30931
0.663889
0.228938
0.0891715
0.0396402
0.01984
0.0109087
0.0064754
0.0040671
0.00267064
0.00182889
0.00130829
0.000981113
0.00077328
0.00064036
0.000554828
0.000499241
0.000462475
0.000437474
0.000419743
0.000406399
0.000395851
0.000387495
0.000380822
1.59592
0.500783
0.182011
0.0738349
0.0340591
0.0176484
0.0100169
0.00612426
0.0039395
0.00264234
0.00184223
0.00133809
0.00101528
0.000806285
0.000669875
0.000580112
0.000520354
0.000479842
0.000451619
0.000431123
0.000415311
0.000402484
0.000391927
0.000383596
1.01876
0.360993
0.140316
0.0602291
0.029188
0.0157789
0.00930926
0.00586714
0.00387018
0.00264993
0.00188101
0.00138624
0.00106312
0.000849772
0.000707618
0.000611979
0.000546801
0.000501567
0.000469341
0.000445428
0.000426553
0.000410831
0.000397488
0.000387152
0.682057
0.262171
0.108213
0.0493499
0.0252636
0.0143073
0.00879292
0.00571239
0.00386234
0.00269963
0.00194923
0.00145591
0.00112724
0.000905944
0.000755487
0.000652082
0.000580028
0.000528889
0.000491656
0.000463433
0.000440668
0.000421356
0.00040493
0.000391963
0.483735
0.195782
0.0852052
0.0412485
0.0223205
0.0132759
0.00848033
0.00567432
0.00392696
0.00279848
0.00205248
0.00155157
0.00121131
0.000977849
0.000816064
0.000702637
0.000621939
0.000563437
0.000519945
0.000486318
0.000458703
0.000435014
0.000414899
0.000398488
0.363496
0.152182
0.0694632
0.0355941
0.0203174
0.0126712
0.00838277
0.00576266
0.00407578
0.00295591
0.00219831
0.00167929
0.00132022
0.00106952
0.000892718
0.000766485
0.000674954
0.000607286
0.000555993
0.00051561
0.000481937
0.000452791
0.000428045
0.000407076
0.289074
0.124223
0.0592481
0.0319878
0.0192038
0.0124859
0.00851832
0.00599846
0.00432465
0.00318465
0.00239683
0.00184712
0.00146048
0.00118627
0.000989828
0.000847304
0.000742205
0.000663133
0.000602131
0.0005533
0.000511999
0.0004759
0.000445182
0.000418171
0.243465
0.107218
0.0532812
0.0301297
0.018924
0.0127202
0.00891467
0.00640803
0.00469528
0.00350193
0.00266162
0.00206581
0.00164069
0.00133505
0.00111314
0.000949905
0.000827785
0.000734509
0.000661419
0.000602011
0.000551049
0.000505987
0.000467442
0.000432376
0.217531
0.0983314
0.0507648
0.0298525
0.0194
0.0134337
0.00961829
0.00702948
0.00521788
0.00393129
0.00301105
0.00234981
0.00187232
0.00152514
0.00127025
0.00108062
0.000937064
0.000826034
0.000737863
0.000665193
0.000601977
0.000545304
0.0004964
0.000450499
0.206474
0.0960867
0.0510695
0.0310059
0.0207871
0.0147016
0.0106984
0.00791758
0.0059347
0.00450523
0.00347021
0.00271867
0.00217083
0.00176893
0.00147126
0.00124782
0.00107711
0.000943759
0.000836699
0.00074738
0.000668622
0.000596912
0.000534225
0.000473634
0.20707
0.0988701
0.0543488
0.0339394
0.0232071
0.0166574
0.0122589
0.00915132
0.00690547
0.00526904
0.00407372
0.00319918
0.00255723
0.00208316
0.00172973
0.00146269
0.00125729
0.00109566
0.000964807
0.00085453
0.000756076
0.000664936
0.000583894
0.000503243
0.219585
0.108393
0.061087
0.0388933
0.0269332
0.0195077
0.0144537
0.0108451
0.00821543
0.00628669
0.00487008
0.00382856
0.00306052
0.00249077
0.00206413
0.00174035
0.00149018
0.00129239
0.00113132
0.000994533
0.000871112
0.000754947
0.000649487
0.000541248
0.245808
0.125173
0.0720389
0.0464701
0.0324013
0.023567
0.0175114
0.013166
0.00998778
0.00764979
0.00592819
0.00465931
0.00372131
0.00302372
0.00250002
0.00210159
0.00179302
0.00154843
0.00134858
0.00117803
0.00102289
0.000874572
0.000736654
0.000590096
0.288472
0.151492
0.0886894
0.0576546
0.0402889
0.0293125
0.0217733
0.0163611
0.0124029
0.00949151
0.00734749
0.00576677
0.00459757
0.00372739
0.00307359
0.00257581
0.00219007
0.00188412
0.00163388
0.00141987
0.00122424
0.00103467
0.000853574
0.000652861
0.352454
0.19096
0.113398
0.0739895
0.0516382
0.0374687
0.0277532
0.0207997
0.0157291
0.0120086
0.00927406
0.00726097
0.00577364
0.00466768
0.00383739
0.00320582
0.0027169
0.00232956
0.00201301
0.00174232
0.00149456
0.00125208
0.00101343
0.000733803
0.445172
0.249017
0.149762
0.0978441
0.0680446
0.0491402
0.0362316
0.0270406
0.0203705
0.0154963
0.0119261
0.00930561
0.00737459
0.00594229
0.00486973
0.00405611
0.00342819
0.00293231
0.00252817
0.00218328
0.0018681
0.00155806
0.0012426
0.000843193
0.577366
0.333703
0.203186
0.132803
0.0919346
0.0660117
0.0484011
0.0359387
0.0269451
0.0204049
0.0156352
0.0121483
0.009589
0.00769851
0.00628932
0.00522607
0.00441088
0.00377213
0.00325606
0.00281954
0.00242406
0.0020344
0.00162042
0.00105728
0.76394
0.456415
0.28151
0.184171
0.126949
0.0906383
0.0660856
0.048809
0.0364065
0.0274298
0.0209122
0.016169
0.0127047
0.0101599
0.00827595
0.00686705
0.0058001
0.00497903
0.00433334
0.00380925
0.00336163
0.00295106
0.0025813
0.00245953
1.02472
0.63246
0.395567
0.259492
0.178401
0.126827
0.0920493
0.0676719
0.0502343
0.0376552
0.0285541
0.021958
0.0171645
0.0136655
0.0110962
0.00919691
0.00778376
0.00672855
0.00594445
0.00537597
0.00498896
0.00477155
0.00479764
0.00534908
1.38691
0.88142
0.559344
0.368864
0.25367
0.180046
0.130382
0.0955901
0.0707132
0.0527762
0.0398141
0.030442
0.0236573
0.0187325
0.0151443
0.0125215
0.0106048
0.00921865
0.00825189
0.00764175
0.00735918
0.00741189
0.0078875
0.00896347
1.90308
1.22842
0.789367
0.524546
0.362193
0.257662
0.186851
0.137057
0.101304
0.0754216
0.056665
0.0430899
0.0332739
0.0261725
0.0210281
0.0173013
0.014618
0.0127292
0.0114809
0.010787
0.0106037
0.0109035
0.0117947
0.013331
2.64078
1.6976
1.10049
0.738574
0.514258
0.368478
0.268906
0.198258
0.147023
0.10956
0.0821746
0.0622298
0.0477591
0.0372852
0.0297147
0.024259
0.0203678
0.0176748
0.0159508
0.0150593
0.0149178
0.0154252
0.0167125
0.0187218
3.71272
2.28899
1.49268
1.01606
0.717372
0.520767
0.384719
0.286777
0.214568
0.16085
0.120942
0.0914805
0.0698919
0.0541693
0.0427737
0.0345631
0.0287238
0.0247041
0.0221479
0.020826
0.0205865
0.0212259
0.0228773
0.0254081
6.00292
3.41796
2.06058
1.37806
0.978808
0.720569
0.541197
0.410215
0.31164
0.236534
0.179357
0.136194
0.103972
0.0801737
0.062758
0.0501324
0.0411156
0.0348774
0.0308592
0.0286773
0.0280611
0.0286945
0.0306273
0.0337425
1.91923
2.50989
3.05749
3.18829
2.85242
2.87768
0.863259
1.0929
1.39049
1.53234
1.54712
1.83805
0.232251
0.841313
1.09378
1.20241
1.27108
1.53423
0.25514
0.798479
1.01242
1.10698
1.18767
1.40408
0.271212
0.822078
0.996498
1.08589
1.17103
1.35364
0.280836
0.886912
1.00961
1.09766
1.18769
1.34504
1.24697
0.958648
1.03801
1.12833
1.22419
1.36622
1.36751
1.00978
1.07312
1.16932
1.27243
1.40713
1.47447
1.04734
1.1104
1.21619
1.32799
1.46032
1.56294
1.0748
1.1483
1.26664
1.38812
1.52117
1.63027
1.09513
1.18659
1.31955
1.45102
1.58621
1.6764
1.1109
1.22552
1.3744
1.51558
1.65295
1.7035
1.12446
1.2654
1.43122
1.58133
1.71974
1.70271
1.13524
1.30686
1.49053
1.64849
1.78597
1.67092
1.1428
1.35075
1.55347
1.71825
1.85235
1.608
1.14735
1.39824
1.62204
1.79317
1.92119
1.51591
1.1493
1.45104
1.69958
1.87791
1.99728
1.3987
1.14924
1.51176
1.79159
1.9806
2.08695
1.26513
1.14793
1.58472
1.90743
2.11265
2.20865
0.280204
1.14629
1.6777
2.06258
2.29939
2.39848
0.262916
1.15725
1.80739
2.2885
2.59197
2.7339
0.238758
1.20101
2.01961
2.66387
3.09879
3.44179
0.877633
1.36389
2.49711
3.46148
4.09965
5.56557
1.91528
2.25093
4.28054
6.09194
6.60208
26.337
5.58787
4.31185
2.68746
1.80736
1.29322
0.965817
0.739708
0.572866
0.444608
0.344067
0.265054
0.203489
0.15619
0.120406
0.09372
0.0740936
0.0599081
0.0499585
0.04339
0.0395829
0.0380697
0.0384452
0.0404637
0.0442167
4.96877
4.84144
3.63886
2.3969
1.69093
1.26319
0.978839
0.773538
0.615031
0.487926
0.38463
0.300995
0.234218
0.181884
0.14166
0.111328
0.0889291
0.0728666
0.0619216
0.0551614
0.0518181
0.0514013
0.053224
0.0575126
3.3941
4.94035
4.49653
3.31981
2.29942
1.67156
1.28011
1.01559
0.820797
0.666918
0.539879
0.433502
0.344908
0.272347
0.214203
0.168696
0.133959
0.108239
0.0900318
0.0781008
0.0713263
0.0689229
0.0701809
0.0747097
2.40872
4.38729
4.73959
4.27306
3.25224
2.35179
1.74087
1.34518
1.07773
0.882165
0.728111
0.599775
0.490224
0.396769
0.318279
0.253875
0.202454
0.162689
0.133199
0.112681
0.0998075
0.0934026
0.0932234
0.0973764
1.97002
3.45579
4.49466
4.55129
4.15714
3.32414
2.51091
1.89208
1.46347
1.17054
0.960635
0.799328
0.66706
0.553892
0.455896
0.371809
0.301208
0.24367
0.198569
0.165088
0.142224
0.128743
0.124519
0.128009
1.77125
2.79169
3.86791
4.44198
4.44024
4.13047
3.46347
2.73476
2.11131
1.63796
1.30068
1.06096
0.882742
0.741646
0.623338
0.520948
0.431976
0.355845
0.292607
0.242364
0.205024
0.180157
0.168071
0.169654
1.68952
2.40211
3.28762
4.02602
4.39328
4.38808
4.15106
3.62573
2.98672
2.37629
1.86409
1.47293
1.18874
0.981788
0.824517
0.697751
0.590327
0.49717
0.416645
0.348771
0.29414
0.253626
0.228859
0.225866
1.66855
2.19506
2.88528
3.57074
4.09708
4.36288
4.36395
4.18886
3.78219
3.23223
2.65538
2.12396
1.68398
1.34764
1.10062
0.918051
0.777334
0.662749
0.565467
0.481728
0.410608
0.352875
0.311598
0.299771
1.6843
2.09808
2.6383
3.21932
3.74184
4.13082
4.33709
4.34602
4.21788
3.90515
3.44082
2.91375
2.38773
1.91717
1.53352
1.24115
1.02501
0.863515
0.737799
0.635138
0.548667
0.475448
0.416325
0.39217
1.72283
2.06316
2.497
2.97688
3.44146
3.83934
4.13176
4.29421
4.30958
4.21508
3.97362
3.58771
3.12042
2.62253
2.146
1.73174
1.39923
1.14658
0.958556
0.81664
0.705629
0.615383
0.538486
0.499584
1.77326
2.06025
2.41682
2.81141
3.20565
3.56601
3.86676
4.08822
4.21394
4.23151
4.16079
3.9727
3.65544
3.25266
2.80092
2.34415
1.92314
1.56576
1.28182
1.06549
0.90295
0.779454
0.677515
0.618957
1.82843
2.07351
2.3669
2.68897
3.01347
3.31907
3.59009
3.81414
3.98005
4.07659
4.09365
4.03977
3.89227
3.63717
3.30001
2.90736
2.49234
2.08989
1.72923
1.42716
1.18697
1.00361
0.857048
0.761644
1.88348
2.09073
2.32794
2.58429
2.84193
3.08749
3.31213
3.5092
3.67267
3.79571
3.86983
3.8862
3.84572
3.73053
3.53132
3.26378
2.93957
2.58161
2.21952
1.87842
1.57692
1.32464
1.11729
0.966978
1.93559
2.10424
2.28763
2.48225
2.67642
2.86228
3.03533
3.19267
3.33176
3.44924
3.53992
3.59707
3.61318
3.58461
3.49971
3.34856
3.14393
2.89499
2.60983
2.30528
2.00215
1.7186
1.46727
1.27173
1.98365
2.11008
2.24002
2.37635
2.5121
2.64327
2.76766
2.88408
2.99136
3.08792
3.17102
3.23641
3.27872
3.29266
3.27339
3.21321
3.10556
2.95373
2.76533
2.55007
2.3171
2.07419
1.83941
1.65317
2.02808
2.10727
2.18369
2.26633
2.35138
2.43734
2.52269
2.60605
2.68555
2.75944
2.82539
2.88003
2.9215
2.94573
2.95172
2.93262
2.88502
2.80649
2.69742
2.55943
2.3992
2.22853
2.06789
1.94628
2.07071
2.09598
2.12
2.15536
2.19971
2.2532
2.31354
2.37803
2.44257
2.5039
2.55912
2.60346
2.63153
2.64463
2.64252
2.62409
2.58891
2.53692
2.4681
2.38291
2.28361
2.17651
2.07495
1.98275
2.1166
2.07723
2.05128
2.04758
2.06239
2.0975
2.149
2.21255
2.28585
2.36185
2.42913
2.47862
2.50472
2.51195
2.49536
2.45726
2.40098
2.32982
2.24726
2.15694
2.06297
1.97158
1.88821
1.79513
2.17145
2.05419
1.97763
1.94673
1.94347
1.97441
2.03311
2.11603
2.21469
2.31208
2.39514
2.45629
2.48855
2.49703
2.47681
2.4318
2.36574
2.28267
2.18745
2.08398
1.97649
1.8695
1.76513
1.65668
2.24219
2.02811
1.90376
1.85345
1.8449
1.88439
1.96476
2.07637
2.20119
2.32711
2.43888
2.5217
2.5673
2.57452
2.54329
2.48288
2.40196
2.30778
2.20465
2.09642
1.98645
1.87689
1.76559
1.65393
2.34076
2.00131
1.83188
1.77157
1.7681
1.82906
1.93994
2.08768
2.25654
2.41951
2.54967
2.62467
2.63768
2.61782
2.56851
2.49417
2.40175
2.29768
2.18773
2.07673
1.96803
1.86227
1.75614
1.65121
2.48449
1.97701
1.76705
1.70512
1.72165
1.81721
1.97477
2.17778
2.39264
2.57318
2.67124
2.68702
2.64226
2.55393
2.43683
2.3081
2.17623
2.04626
1.92148
1.80462
1.69725
1.59877
1.51062
1.4225
2.70022
1.95628
1.71858
1.66812
1.72459
1.87384
2.10098
2.37202
2.62481
2.78173
2.81727
2.70485
2.50612
2.27823
2.05667
1.85542
1.67606
1.51545
1.37074
1.24309
1.13176
1.03247
0.95231
0.867609
3.04034
1.94375
1.70601
1.68488
1.79934
2.03106
2.34776
2.68686
2.94505
3.03957
2.94881
2.6579
2.29237
1.95237
1.66303
1.42446
1.22629
1.05979
0.920258
0.799773
0.695078
0.60341
0.525228
0.455664
)
;

boundaryField
{
    rotor
    {
        type            epsilonWallFunction;
        value           nonuniform List<scalar> 
144
(
1.82525
1.78822
3.00953
4.21531
5.26236
6.12297
1.82525
0.848851
0.230089
0.25425
0.270864
0.280856
1.2793
1.3774
1.45425
1.50556
1.52995
1.52833
1.50037
1.4493
1.3847
1.30602
1.21397
0.280811
0.273188
0.261019
0.243764
0.221348
0.82369
1.88704
1.88704
1.94515
1.93129
1.77486
1.53433
2.45648
2.55042
7.32858
10.2061
11.0604
10.8653
55.9731
2.55042
0.961745
0.281027
1.54017
1.92511
2.28653
2.59394
2.8347
3.00539
3.10766
3.14662
3.13016
3.06918
2.96475
2.80917
2.6034
2.35188
2.06143
1.74168
1.40016
1.1988
0.256991
0.957964
2.17654
2.17654
2.84936
4.82867
6.87223
7.05611
6.19008
2.13596
1.85634
2.59807
4.51309
5.8349
26.3142
2.13596
0.902575
0.240779
0.26289
1.18785
1.41489
1.66343
1.89379
2.08529
2.22887
2.32071
2.36007
2.35289
2.30583
2.25141
2.17986
2.07731
1.93169
1.73166
1.47095
0.280877
0.255302
0.966737
2.24174
2.24174
4.6041
6.63664
6.81123
6.46784
6.17643
1.91923
2.50989
3.05749
3.18829
2.85242
2.87768
1.91923
0.863259
0.232251
0.25514
0.271212
0.280836
1.24697
1.36751
1.47447
1.56294
1.63027
1.6764
1.7035
1.70271
1.67092
1.608
1.51591
1.3987
1.26513
0.280204
0.262916
0.238758
0.877633
1.91528
1.91528
2.25093
4.28054
6.09194
6.60208
26.337
)
;
    }
    freestream
    {
        type            inletOutlet;
        inletValue      uniform 0.000375;
        value           nonuniform List<scalar> 
96
(
0.313941
0.255177
0.217608
0.182859
0.159139
0.14015
0.122233
0.106062
0.09143
0.0781558
0.066189
0.0554572
0.0458524
0.0372979
0.0296957
0.0229294
0.0168606
0.0112831
0.00590105
0.000375
0.000375
0.000375
0.000375
0.000375
0.000375
0.000375
0.000375
0.000375
0.000375
0.000375
0.000375
0.000375
0.000375
0.000375
0.000375
0.000375
0.000375
0.000375
0.000375
0.000375
0.000375
0.000375
0.000375
0.000375
0.000375
0.000375
0.000375
0.000375
0.000375
0.000375
0.000375
0.000375
0.000375
0.000375
0.000375
0.000375
0.000375
0.000375
0.000375
0.000375
0.000375
0.000375
0.000375
0.000375
0.000375
0.00245953
0.00534908
0.00896347
0.013331
0.0187218
0.0254081
0.0337425
0.0442167
0.0575126
0.0747097
0.0973764
0.128009
0.169654
0.225866
0.299771
0.39217
0.499584
0.618957
0.761644
0.966978
1.27173
1.65317
1.94628
1.98275
1.79513
1.65668
1.65393
1.65121
1.4225
0.867609
0.455664
)
;
    }
    frontAndBack
    {
        type            empty;
    }
}


// ************************************************************************* //
