/*--------------------------------*- C++ -*----------------------------------*\
  =========                 |
  \\      /  F ield         | OpenFOAM: The Open Source CFD Toolbox
   \\    /   O peration     | Website:  https://openfoam.org
    \\  /    A nd           | Version:  11
     \\/     M anipulation  |
\*---------------------------------------------------------------------------*/
FoamFile
{
    format      ascii;
    class       volScalarField;
    location    "0.56";
    object      k;
}
// * * * * * * * * * * * * * * * * * * * * * * * * * * * * * * * * * * * * * //

dimensions      [0 2 -2 0 0 0 0];

internalField   nonuniform List<scalar> 
2880
(
0.00391183
0.00741774
0.0204768
0.0427344
0.0744107
0.11621
0.0163318
0.0235935
0.0417852
0.0642462
0.0922693
0.128386
0.0204225
0.0339892
0.0549761
0.078199
0.105365
0.137202
0.0225634
0.041486
0.0639764
0.0875575
0.113767
0.141872
0.0240363
0.047312
0.0704233
0.0939466
0.119203
0.145149
0.0250227
0.0519696
0.0749798
0.0981234
0.122493
0.147404
0.0262611
0.0554117
0.0780426
0.100556
0.124075
0.148482
0.0275627
0.057822
0.0798867
0.101557
0.124204
0.148362
0.028576
0.0593568
0.0807105
0.101383
0.123065
0.147041
0.0292446
0.06013
0.0806689
0.100159
0.120813
0.144658
0.0295603
0.0602265
0.079866
0.0980593
0.11761
0.141383
0.0295398
0.0597108
0.0784059
0.0952148
0.1136
0.137395
0.0291788
0.0586253
0.0763709
0.0917429
0.10891
0.132857
0.0285128
0.0569853
0.0738281
0.0877469
0.103652
0.127883
0.027658
0.0547655
0.0708283
0.083319
0.0979202
0.122524
0.0266
0.0519595
0.0674085
0.0785435
0.0918163
0.116813
0.0253386
0.0485934
0.0636005
0.0734994
0.0854777
0.110898
0.0249534
0.0448576
0.0594524
0.0682529
0.0790907
0.105132
0.0242723
0.0411373
0.0550261
0.0628355
0.0727074
0.0996068
0.02318
0.0374429
0.0503249
0.057219
0.0662503
0.0943113
0.0216432
0.0335918
0.0451888
0.0512694
0.0594245
0.0889711
0.0196512
0.029129
0.0391141
0.0445728
0.051527
0.0827112
0.0158501
0.0226564
0.0305996
0.0358766
0.0408408
0.0739082
0.00404435
0.00806994
0.0131819
0.0180589
0.0217779
0.0464372
0.161127
0.163535
0.159783
0.158334
0.160431
0.166261
0.174294
0.181438
0.183945
0.180679
0.168007
0.152394
0.138696
0.128426
0.121113
0.115628
0.110829
0.105987
0.100838
0.0954211
0.0899754
0.0846486
0.0798314
0.0768871
0.159679
0.164244
0.163785
0.166256
0.172783
0.182447
0.192473
0.198532
0.197478
0.186175
0.167412
0.148477
0.133786
0.123812
0.117009
0.11181
0.107053
0.10216
0.0970356
0.0917815
0.0865941
0.0819087
0.0783382
0.0764424
0.16133
0.16895
0.173055
0.180261
0.191028
0.203448
0.213052
0.214988
0.206346
0.187018
0.163463
0.14354
0.130028
0.12138
0.115175
0.109946
0.10488
0.0996704
0.0944475
0.0894457
0.0849369
0.0812494
0.0788727
0.0783279
0.164907
0.1771
0.186236
0.198303
0.212711
0.225868
0.231563
0.225742
0.208179
0.181113
0.156047
0.138299
0.127206
0.119631
0.11338
0.107617
0.1019
0.0963208
0.091174
0.0867556
0.0833606
0.0812889
0.0806855
0.0812096
0.169254
0.186462
0.201317
0.218185
0.234909
0.245607
0.242998
0.228691
0.200085
0.17047
0.148369
0.134358
0.12511
0.117712
0.110968
0.104453
0.0982323
0.0926273
0.0879503
0.0844592
0.0823485
0.0817402
0.0822938
0.0836033
0.173172
0.195781
0.216666
0.237807
0.254497
0.257229
0.246632
0.21996
0.186323
0.159856
0.142743
0.131535
0.122828
0.114934
0.107373
0.10028
0.0939801
0.0887785
0.0849109
0.0825059
0.081574
0.0818746
0.0831025
0.0847707
0.176116
0.204285
0.231198
0.255321
0.26687
0.261066
0.239726
0.203471
0.172849
0.15246
0.139086
0.128804
0.119571
0.110805
0.102616
0.0953317
0.0892745
0.0846941
0.0817156
0.080317
0.0803351
0.0812653
0.0831167
0.0849226
0.177892
0.21173
0.244379
0.268913
0.270786
0.25657
0.222408
0.187716
0.163766
0.147981
0.135935
0.125205
0.115065
0.10559
0.0970975
0.0899203
0.0843204
0.0804423
0.0782837
0.0777067
0.0782729
0.0798364
0.0820084
0.0839177
0.178569
0.218329
0.255842
0.274589
0.268577
0.24183
0.204123
0.176698
0.158419
0.144494
0.13211
0.120414
0.109462
0.0995738
0.0910813
0.0842426
0.0792119
0.0760142
0.074533
0.0745328
0.0754895
0.077419
0.079719
0.0816298
0.178415
0.224566
0.265123
0.274374
0.258545
0.222503
0.191727
0.170775
0.154841
0.140662
0.127214
0.114561
0.10307
0.0930825
0.0848366
0.0784671
0.0740103
0.0713898
0.0704177
0.0707363
0.0720189
0.0740823
0.0764054
0.0782747
0.177799
0.23085
0.269317
0.267207
0.242406
0.208758
0.185135
0.167241
0.151237
0.135878
0.121284
0.107931
0.0962274
0.0864069
0.0785638
0.0727021
0.0687538
0.066571
0.0659268
0.0664291
0.0678629
0.0699413
0.0722118
0.0740129
0.177125
0.237437
0.268786
0.257345
0.226943
0.201505
0.181966
0.16426
0.146901
0.130113
0.114577
0.100851
0.089221
0.0797543
0.0723897
0.0670118
0.0634726
0.0615824
0.0611057
0.061673
0.0631126
0.0651149
0.0672795
0.0689969
0.176687
0.243644
0.262576
0.245334
0.219659
0.198987
0.179983
0.160743
0.141592
0.12353
0.107387
0.0936016
0.0822666
0.0732647
0.0663932
0.0614392
0.058199
0.0564661
0.0560182
0.0565402
0.0578651
0.0597157
0.0617332
0.0633594
0.176499
0.248101
0.25384
0.23719
0.217652
0.198313
0.177772
0.156309
0.135416
0.116399
0.0999907
0.0864036
0.0755108
0.0670236
0.0606211
0.0560168
0.0529719
0.0512785
0.0507399
0.0511122
0.0522166
0.0538443
0.0556751
0.0572045
0.176051
0.249534
0.247877
0.234733
0.218134
0.197987
0.174783
0.150937
0.128581
0.10898
0.0926099
0.0794124
0.069047
0.0610806
0.0551029
0.050776
0.047839
0.0460898
0.0453597
0.0454799
0.046264
0.0475877
0.0491814
0.0506035
0.174009
0.248943
0.245888
0.235375
0.220744
0.197309
0.170813
0.144755
0.121325
0.1015
0.0854149
0.0727356
0.0629344
0.0554677
0.049864
0.0457529
0.0428599
0.0409868
0.0399878
0.0397445
0.0401187
0.0410219
0.0422932
0.0435782
0.168874
0.248085
0.246919
0.240611
0.223319
0.195557
0.165817
0.137952
0.113873
0.0941401
0.0785271
0.066444
0.0572123
0.0502112
0.0449337
0.0409928
0.0381058
0.036073
0.0347567
0.0340599
0.0339056
0.0342222
0.0349939
0.0360491
0.163631
0.24854
0.253907
0.247942
0.225056
0.192621
0.159955
0.130749
0.106414
0.0870342
0.0720281
0.0605849
0.0519116
0.0453403
0.0403502
0.0365513
0.0336581
0.0314644
0.0298235
0.0286298
0.0278043
0.0273067
0.0272092
0.0277172
0.161577
0.254008
0.26483
0.255996
0.225733
0.188485
0.15337
0.123313
0.0990824
0.0802697
0.0659686
0.0551887
0.0470586
0.040889
0.0361617
0.0324949
0.0296069
0.0272858
0.0253662
0.0237078
0.0221746
0.0206329
0.0190287
0.0178624
0.17013
0.266052
0.278236
0.262654
0.224316
0.183084
0.146192
0.115782
0.0919758
0.0739018
0.060375
0.0502703
0.0426714
0.0368884
0.0324186
0.0288971
0.0260537
0.0236799
0.0216028
0.01966
0.0176732
0.0154219
0.0126006
0.00815211
0.189587
0.284367
0.292854
0.266397
0.220994
0.176613
0.138578
0.108267
0.0851577
0.0679558
0.055249
0.0458225
0.0387459
0.0333464
0.0291468
0.0258065
0.0230759
0.020765
0.0187194
0.016801
0.0148689
0.0127679
0.0102989
0.00680277
0.215894
0.307794
0.30733
0.268033
0.216196
0.1692
0.130628
0.100838
0.0786618
0.0624325
0.0505694
0.041813
0.0352456
0.0302254
0.0263071
0.023178
0.0206121
0.0184401
0.0165277
0.0147569
0.0130069
0.0111467
0.00904094
0.00628194
0.249915
0.334621
0.317555
0.265411
0.209216
0.160782
0.122398
0.0935473
0.0725059
0.0573178
0.0463006
0.0381928
0.0321115
0.0274553
0.0238135
0.0209008
0.0185126
0.0164968
0.0147336
0.0131178
0.0115404
0.00989014
0.00808199
0.00587343
0.298736
0.360595
0.321772
0.259068
0.200251
0.151506
0.113997
0.0864551
0.0667037
0.0525917
0.0424024
0.0349101
0.0292836
0.0249668
0.0215844
0.0188766
0.0166579
0.0147908
0.0131675
0.0116937
0.0102729
0.00881579
0.00727772
0.00551551
0.00543559
0.0305161
0.0697749
0.112627
0.15495
0.194601
0.018393
0.0637362
0.110291
0.156754
0.213015
0.317427
0.0251048
0.0796839
0.129581
0.180013
0.240838
0.327949
0.0298448
0.0896253
0.140855
0.19232
0.25082
0.319441
0.0346023
0.096667
0.147882
0.198314
0.252247
0.306123
0.0387944
0.101942
0.15222
0.200319
0.248953
0.291508
0.0421938
0.105927
0.154654
0.199866
0.243031
0.276824
0.044765
0.108801
0.155606
0.197731
0.235808
0.262718
0.0465444
0.110622
0.155332
0.194466
0.228065
0.24955
0.0475948
0.111416
0.154026
0.190454
0.220283
0.23751
0.0479923
0.111217
0.151857
0.185971
0.212761
0.226665
0.0478256
0.110074
0.148972
0.181218
0.20562
0.217063
0.047203
0.10804
0.145491
0.17632
0.198933
0.208679
0.0461266
0.105174
0.141494
0.171333
0.192726
0.201446
0.0444993
0.101544
0.137011
0.166247
0.186975
0.195274
0.0422997
0.0971788
0.132025
0.160998
0.18161
0.190059
0.0395304
0.0920647
0.126454
0.155462
0.176507
0.185693
0.0362057
0.086139
0.120138
0.14944
0.171477
0.18205
0.0323617
0.0792713
0.112818
0.142659
0.166218
0.178987
0.0280826
0.0712241
0.104086
0.134736
0.160231
0.176374
0.0250349
0.0615693
0.0932731
0.124991
0.152686
0.174008
0.022733
0.0497281
0.0792051
0.112301
0.142181
0.1707
0.0184588
0.0339794
0.0593988
0.0944671
0.125518
0.160883
0.00467875
0.0119051
0.0331099
0.0700313
0.100111
0.11855
0.366444
0.372288
0.317494
0.249205
0.189464
0.141536
0.105551
0.0796265
0.061268
0.0482339
0.0388377
0.0319204
0.0267134
0.0227086
0.0195647
0.0170459
0.0149841
0.0132549
0.0117615
0.0104204
0.00914832
0.00787571
0.00658494
0.00519134
0.399586
0.368934
0.303034
0.23558
0.177134
0.131135
0.0972279
0.0731381
0.0562136
0.0442272
0.0355764
0.0291896
0.0243665
0.020647
0.017722
0.015378
0.0134627
0.0118638
0.0104948
0.00928217
0.00815463
0.00705866
0.00599247
0.00490501
0.380912
0.349449
0.28499
0.219892
0.16402
0.120712
0.0892291
0.0670662
0.0515525
0.0405563
0.0325942
0.0266926
0.0222199
0.0187618
0.0160391
0.0138585
0.0120822
0.0106088
0.00936096
0.008274
0.0072869
0.00635794
0.00549281
0.00465833
0.356784
0.32624
0.265102
0.203342
0.150836
0.110645
0.0817211
0.0614644
0.0472874
0.0372057
0.0298718
0.0244115
0.0202588
0.0170413
0.0145072
0.0124814
0.0108387
0.00948751
0.00835865
0.00739468
0.00654267
0.00576881
0.00508013
0.00445159
0.332452
0.302104
0.244775
0.186901
0.138143
0.101206
0.0748079
0.0563557
0.0434099
0.0341585
0.0273928
0.0223329
0.018473
0.0154783
0.0131213
0.0112431
0.00972976
0.00849823
0.00748593
0.00664128
0.00591723
0.00528442
0.00474698
0.00428258
0.309418
0.278806
0.225142
0.171266
0.126309
0.0925511
0.0685329
0.0517369
0.039903
0.0313971
0.0251429
0.0204461
0.0168546
0.0140671
0.0118773
0.0101404
0.00875248
0.00763762
0.00673866
0.00600828
0.00540314
0.00489544
0.00448408
0.00414723
0.28817
0.257194
0.206866
0.156837
0.115524
0.0847401
0.0628958
0.0475877
0.0367447
0.0289038
0.0231087
0.0187415
0.0153968
0.0128024
0.0107706
0.0091689
0.00790204
0.00690013
0.00611012
0.0054873
0.00499007
0.00459023
0.00428089
0.00404061
0.268898
0.237686
0.190277
0.143802
0.105855
0.0777696
0.0578683
0.0438773
0.0339105
0.0266606
0.0212777
0.0172099
0.0140923
0.011678
0.00979528
0.00832252
0.00717175
0.00627807
0.00559121
0.00506748
0.00466554
0.00435582
0.00412666
0.00395783
0.251659
0.220426
0.175488
0.132205
0.0972829
0.0715964
0.0534058
0.0405706
0.0313751
0.0246501
0.0196373
0.0158418
0.0129334
0.0106868
0.0089443
0.00759368
0.00655327
0.005762
0.00517099
0.00473623
0.00441589
0.00417921
0.0040115
0.00389458
0.236502
0.205303
0.162466
0.121994
0.0897411
0.0661555
0.0494564
0.0376305
0.0291134
0.0228549
0.0181749
0.0146272
0.0119113
0.00982053
0.00820934
0.00697362
0.00603705
0.00534119
0.00483729
0.00448017
0.00422756
0.00404848
0.00392697
0.0038472
0.22335
0.19218
0.151104
0.113068
0.0831362
0.0613718
0.0459663
0.0350207
0.027101
0.0212578
0.0168778
0.0135558
0.0110169
0.0090703
0.0075813
0.0064528
0.00561277
0.00500423
0.00457753
0.00428614
0.00408811
0.00395345
0.00386619
0.00381266
0.21209
0.180899
0.141257
0.1053
0.0773639
0.0571679
0.0428824
0.0327061
0.0253143
0.0198424
0.0157333
0.0126169
0.0102403
0.00842668
0.00705066
0.0060213
0.0052698
0.00473956
0.00437946
0.00414207
0.00398683
0.00388578
0.00382367
0.0037884
0.202593
0.171292
0.132766
0.098555
0.0723182
0.0534686
0.0401547
0.0306538
0.0237312
0.0185928
0.014729
0.0118
0.00957186
0.00788018
0.00660782
0.0056691
0.00499749
0.00453591
0.00423172
0.00403748
0.00391493
0.00383879
0.00379497
0.00377215
0.194733
0.163195
0.125472
0.0926972
0.0678961
0.0502038
0.0377374
0.0288338
0.0223311
0.0174939
0.013853
0.0110949
0.00900224
0.0074217
0.00624356
0.00538657
0.00478563
0.00438277
0.00412429
0.00396366
0.00386551
0.00380731
0.00377654
0.00376172
0.188402
0.156455
0.119219
0.0875945
0.0639997
0.0473082
0.0355882
0.0272183
0.0210949
0.0165316
0.0130942
0.0104921
0.00852268
0.00704284
0.00594945
0.00516494
0.00462509
0.00427108
0.00404892
0.00391382
0.00383345
0.00378791
0.00376552
0.00375547
0.183513
0.150931
0.113859
0.083118
0.0605356
0.0447209
0.0336683
0.0257819
0.0200049
0.0156928
0.0124422
0.00998254
0.00812518
0.00673602
0.00571795
0.00499655
0.00450815
0.00419347
0.00399913
0.00388268
0.00381469
0.00377759
0.00375989
0.00375234
0.180009
0.146497
0.109242
0.0791412
0.0574165
0.0423862
0.0319425
0.0245013
0.0190449
0.0149654
0.011887
0.00955803
0.00780228
0.00649418
0.00554213
0.00487443
0.00442803
0.00414385
0.00396989
0.00386628
0.00380621
0.00377375
0.00375818
0.00375146
0.177856
0.143034
0.105207
0.0755359
0.0545587
0.0402526
0.0303787
0.0233554
0.0181998
0.0143379
0.0114196
0.00921081
0.00754703
0.00631081
0.00541563
0.00479238
0.00437895
0.00411725
0.00395729
0.00386175
0.00380604
0.0037749
0.00375917
0.00375171
0.17705
0.140409
0.101574
0.072167
0.0518803
0.0382721
0.0289478
0.0223253
0.0174561
0.0138001
0.0110318
0.00893383
0.00735319
0.00618013
0.005333
0.00474529
0.0043564
0.00411
0.00395844
0.0038668
0.00381214
0.00378031
0.00376249
0.00375278
0.177539
0.138423
0.0981247
0.0688938
0.0493029
0.0364014
0.0276244
0.0213942
0.016802
0.013343
0.0107163
0.00872098
0.00721541
0.00609732
0.00528984
0.00472939
0.00435712
0.00411963
0.00397166
0.00388029
0.00382394
0.00378919
0.00376784
0.00375464
0.179232
0.136734
0.0945725
0.0655591
0.0467522
0.0346034
0.0263874
0.0205486
0.0162278
0.012959
0.0104669
0.00856718
0.00712931
0.00605854
0.00528282
0.00474112
0.00437914
0.00414492
0.00399618
0.00390186
0.00384131
0.00380162
0.0037752
0.00375734
0.181572
0.13469
0.0905296
0.0619937
0.0441635
0.0328504
0.0252224
0.0197791
0.0157264
0.0126426
0.0102791
0.00846857
0.00709162
0.00606095
0.0053091
0.00478043
0.00442182
0.0041856
0.00403207
0.00393175
0.00386458
0.00381801
0.003785
0.00376129
0.181709
0.130953
0.0854872
0.058042
0.0414988
0.0311313
0.0241239
0.0190818
0.0152945
0.0123906
0.0101501
0.00842268
0.00710017
0.00610297
0.00536944
0.00484638
0.00448539
0.00424233
0.00408018
0.00397083
0.00389462
0.00383918
0.00379803
0.00376714
0.173581
0.123272
0.0789019
0.0536351
0.0387723
0.0294598
0.0230987
0.0184594
0.014933
0.0122031
0.0100797
0.00842876
0.00715457
0.00618493
0.00546284
0.00493965
0.00457103
0.00431662
0.00414209
0.00402063
0.0039328
0.00386638
0.00381539
0.00377577
0.00458818
0.00774098
0.0177698
0.0459451
0.0826853
0.116833
0.0173807
0.0267663
0.0441754
0.0745059
0.101272
0.113239
0.0213795
0.0393299
0.0609305
0.0892385
0.105437
0.108392
0.0233291
0.0489414
0.0720863
0.0945965
0.103655
0.100739
0.0249648
0.0568762
0.0794883
0.0954264
0.0997134
0.0925064
0.0281172
0.0631795
0.0842101
0.0948939
0.0956986
0.0854118
0.0312998
0.0682351
0.0870355
0.094255
0.0921388
0.0798326
0.0341223
0.072261
0.0890796
0.094051
0.089442
0.0758869
0.0363856
0.0755659
0.0909347
0.0943197
0.0878747
0.0735993
0.0380375
0.0783608
0.0929488
0.0952687
0.0876066
0.0729718
0.0390745
0.0807617
0.0952921
0.0970609
0.0883724
0.0735802
0.0395131
0.0827979
0.0979886
0.0996593
0.090643
0.0758745
0.0394306
0.0844229
0.100956
0.103039
0.0942364
0.0796929
0.0388997
0.0855304
0.104008
0.107072
0.0991222
0.0850344
0.0382784
0.0859377
0.106903
0.111634
0.105183
0.0919407
0.0374571
0.0855489
0.109394
0.116556
0.112159
0.100455
0.0362673
0.0841238
0.111171
0.121538
0.11977
0.1105
0.0345465
0.0815807
0.111885
0.126091
0.127776
0.121733
0.032117
0.0778485
0.111321
0.129522
0.135788
0.133432
0.0288359
0.0728748
0.108913
0.130919
0.142563
0.14538
0.0250407
0.0664587
0.104025
0.129359
0.146022
0.15665
0.0226562
0.0578881
0.0954678
0.122734
0.143621
0.16409
0.0186
0.0454794
0.0802222
0.106862
0.130777
0.159912
0.00480483
0.0191267
0.045323
0.0692876
0.0917337
0.116331
0.150933
0.10861
0.0707083
0.0489361
0.0360735
0.0278768
0.022166
0.0179215
0.0146471
0.0120835
0.0100685
0.00848717
0.00725491
0.00630662
0.00559034
0.00506173
0.00468064
0.00441055
0.00421988
0.00408309
0.00398095
0.00390133
0.00383852
0.00378841
0.125312
0.0916636
0.062225
0.0443675
0.0335473
0.0264424
0.0213536
0.0174824
0.0144443
0.012036
0.0101195
0.00859999
0.00740284
0.00646986
0.00575398
0.00521502
0.00481693
0.00452698
0.0043164
0.00416103
0.00404172
0.00394608
0.00386784
0.00380551
0.104997
0.07724
0.0545345
0.0402844
0.0313269
0.0252161
0.0206908
0.0171594
0.014338
0.0120662
0.0102378
0.00877113
0.00760177
0.00667804
0.00595739
0.0054035
0.00498412
0.00467017
0.00443568
0.00425789
0.00411761
0.00400196
0.00390441
0.00382723
0.0892465
0.0659639
0.0481986
0.0368936
0.0295018
0.0242417
0.0202038
0.016969
0.0143357
0.0121843
0.0104303
0.00900625
0.00785686
0.00693623
0.00620586
0.00563277
0.00518807
0.00484591
0.00458299
0.00437798
0.00421183
0.00407169
0.00395244
0.00385623
0.0774675
0.0574663
0.0433121
0.0342639
0.0281162
0.0235476
0.0199138
0.0169285
0.0144526
0.0124
0.010705
0.00931238
0.00817462
0.00725082
0.00650584
0.00590951
0.00543558
0.00506097
0.00476481
0.00452737
0.00433001
0.00416052
0.00401548
0.00389492
0.0688235
0.0513221
0.0397771
0.0323868
0.0271826
0.0231515
0.0198383
0.0170525
0.0147011
0.0127239
0.011071
0.00969763
0.00856259
0.00762902
0.0068645
0.0062409
0.00573398
0.00532275
0.0049885
0.00471308
0.00447853
0.00427361
0.00409691
0.00394492
0.0627238
0.0471627
0.0374509
0.0312253
0.0266996
0.0230669
0.0199928
0.0173556
0.0150938
0.013167
0.0115383
0.010171
0.00902912
0.00807879
0.00728955
0.00663463
0.00609108
0.00563933
0.00526228
0.00494317
0.00466468
0.00441672
0.00420061
0.00400815
0.0587921
0.0446815
0.0361962
0.0307382
0.0266634
0.0232946
0.020391
0.017852
0.0156437
0.0137413
0.0121177
0.0107425
0.00958342
0.00860878
0.00778928
0.00709889
0.00651517
0.00601929
0.00559504
0.00522654
0.00489676
0.00459675
0.00433145
0.00408698
0.0567485
0.0436423
0.0359056
0.0308484
0.0270493
0.0238602
0.0210494
0.0185572
0.0163654
0.0144601
0.0128214
0.0114232
0.0102357
0.00922845
0.00837267
0.00764233
0.0070149
0.00647147
0.00599596
0.00557258
0.00518392
0.00482169
0.00449533
0.00418421
0.0563876
0.0437771
0.0363409
0.031561
0.0279031
0.0247748
0.021986
0.0194891
0.0172756
0.0153386
0.0136631
0.0122255
0.0109973
0.00994831
0.00904945
0.00827416
0.00759917
0.00700479
0.00647421
0.00599078
0.00553569
0.00510034
0.00469901
0.00430301
0.0572443
0.0449909
0.037695
0.0329073
0.0292249
0.0260605
0.0232235
0.0206693
0.018394
0.0163948
0.014659
0.0131641
0.0118814
0.0107802
0.00983045
0.00900437
0.00827738
0.00762831
0.00703883
0.00649042
0.00596158
0.00544182
0.00494982
0.00444665
0.0596832
0.0473554
0.0398575
0.0348789
0.0310434
0.0277487
0.0247919
0.0221253
0.0197454
0.0176507
0.0158287
0.0142562
0.0129035
0.011738
0.0107281
0.00984425
0.00905983
0.00835165
0.00769905
0.00708068
0.00647096
0.00585535
0.00525526
0.00461792
0.0634942
0.0508017
0.0428611
0.0375202
0.0334051
0.0298833
0.0267315
0.023893
0.0213616
0.0191341
0.0171965
0.0155234
0.0140824
0.0128387
0.0117577
0.0108075
0.00995888
0.00918606
0.00846531
0.00777152
0.00707367
0.00635063
0.00562316
0.00481839
0.0687377
0.0554031
0.0467848
0.040906
0.0363781
0.0325254
0.029096
0.0260194
0.0232832
0.0208803
0.0187931
0.0169925
0.0154423
0.0141037
0.0129387
0.011912
0.0109911
0.0101469
0.00935176
0.00857615
0.00778244
0.00693999
0.00606326
0.00504778
0.075533
0.061296
0.0517536
0.0451446
0.0400562
0.0357568
0.0319567
0.0285662
0.0255634
0.0229351
0.0206583
0.0186985
0.0170143
0.0155617
0.014298
0.0131836
0.0121817
0.0112586
0.0103823
0.00951766
0.00861958
0.00764531
0.00659353
0.00530544
0.0840349
0.0686638
0.0579339
0.0503789
0.0445627
0.0396845
0.0354064
0.0316139
0.0282715
0.0253581
0.0228436
0.0206869
0.0188395
0.0172513
0.0158736
0.014661
0.0135714
0.0125655
0.0116048
0.0106468
0.00963802
0.008521
0.00726343
0.00560703
0.0943862
0.0777068
0.0655182
0.05678
0.0500486
0.0444424
0.0395638
0.035266
0.0314974
0.0282268
0.0254163
0.0230166
0.0209718
0.019224
0.0177177
0.0164011
0.0152261
0.0141471
0.0131181
0.0120876
0.0109908
0.00974785
0.00826773
0.00617145
0.106652
0.0885858
0.0746887
0.0645277
0.0566844
0.0501893
0.0445742
0.0396534
0.0353563
0.0316413
0.0284627
0.0257634
0.023479
0.0215438
0.0198953
0.0184761
0.0172339
0.0161206
0.0150891
0.0140893
0.0130607
0.0119425
0.0108011
0.0103078
0.120763
0.101319
0.0855467
0.0737661
0.0646333
0.0570948
0.0506049
0.0449341
0.039992
0.0357289
0.0320933
0.0290218
0.0264426
0.0242826
0.0224729
0.020952
0.019668
0.0185796
0.0176576
0.0168858
0.0162566
0.0157904
0.0156839
0.016488
0.135845
0.115587
0.0979887
0.0845186
0.0739954
0.0653046
0.0578255
0.0512848
0.0455759
0.0406467
0.0364461
0.0329092
0.0299596
0.0275178
0.0255092
0.0238692
0.0225479
0.0215129
0.0207528
0.0202764
0.0201038
0.0202814
0.0209881
0.0224576
0.150046
0.130694
0.111539
0.0965521
0.0847082
0.0748705
0.0663619
0.0588743
0.0522944
0.0465792
0.0416908
0.0375726
0.0341505
0.0313426
0.0290703
0.0272672
0.0258857
0.0249013
0.0243128
0.0241359
0.024368
0.0250565
0.0263323
0.0281833
0.160748
0.144545
0.12494
0.109141
0.0963832
0.0856307
0.076209
0.0678031
0.0603116
0.0537202
0.0480237
0.0431928
0.0391698
0.0358793
0.0332443
0.0311993
0.0297003
0.0287279
0.0282847
0.0283695
0.0289416
0.0300686
0.0317655
0.0339124
0.16051
0.151572
0.135531
0.120776
0.108106
0.0970492
0.0870982
0.0779983
0.069693
0.0622225
0.0556421
0.049977
0.0452102
0.0412915
0.0381573
0.0357501
0.0340326
0.032991
0.0326272
0.0328914
0.0337591
0.0352421
0.0372952
0.0397148
0.144616
0.147801
0.141287
0.129519
0.118443
0.108117
0.0983632
0.0890751
0.0802811
0.072101
0.0646768
0.0581202
0.0524884
0.0477861
0.0439859
0.0410535
0.0389676
0.0377246
0.0373275
0.0376782
0.0387502
0.0405212
0.0428892
0.0455794
0.00411596
0.0104109
0.0208519
0.0323951
0.0404267
0.054229
0.0166145
0.0280289
0.0430417
0.0554746
0.0644484
0.0788519
0.0206227
0.0363861
0.0539916
0.0672487
0.0778231
0.0912074
0.0226509
0.0421042
0.0615272
0.0756746
0.0873296
0.100387
0.0240481
0.0468299
0.0676112
0.082697
0.0953274
0.108502
0.0249668
0.0511893
0.0729186
0.0889693
0.102555
0.115993
0.0258512
0.0552909
0.0776992
0.0947391
0.1093
0.123134
0.027453
0.0590221
0.0820163
0.100089
0.115671
0.130047
0.0288676
0.0622645
0.0858619
0.105028
0.12169
0.136732
0.0300132
0.0649573
0.0892117
0.109534
0.127326
0.143122
0.0308709
0.0670682
0.0920398
0.113572
0.13252
0.149116
0.0314522
0.0685679
0.0943159
0.117089
0.137206
0.154605
0.0317915
0.0694173
0.0959998
0.120028
0.141307
0.159486
0.0317828
0.0695909
0.0970393
0.122315
0.144746
0.163674
0.0313869
0.0690956
0.0973493
0.123869
0.147444
0.167112
0.0305947
0.0678621
0.0968777
0.124585
0.149318
0.169768
0.0294157
0.0658207
0.0954914
0.124334
0.150268
0.171646
0.0278777
0.0628761
0.0930447
0.122948
0.150156
0.17275
0.0260419
0.0588922
0.0893399
0.120194
0.148755
0.172921
0.0249339
0.0536478
0.0840907
0.115737
0.145709
0.171936
0.0233896
0.0470793
0.0768382
0.109054
0.140409
0.169331
0.0212013
0.0386279
0.0667192
0.0992346
0.13163
0.163901
0.0168945
0.0266676
0.0516594
0.0843754
0.116995
0.150641
0.00410952
0.00935908
0.02924
0.0619361
0.093577
0.115318
0.140135
0.145861
0.14298
0.135103
0.12633
0.117637
0.108969
0.100246
0.0915561
0.0830862
0.0750663
0.0677121
0.0611861
0.0555851
0.050952
0.0473026
0.0446515
0.0430198
0.0424227
0.042741
0.0438848
0.0458645
0.0485057
0.0514702
0.142838
0.155575
0.150078
0.141067
0.132705
0.125306
0.118
0.110477
0.102603
0.0944925
0.0863878
0.0785745
0.0713198
0.064836
0.0592723
0.0547312
0.0512948
0.049037
0.0480088
0.0481436
0.0491738
0.0512488
0.0541026
0.0573433
0.136129
0.173977
0.169819
0.156226
0.143326
0.133642
0.126175
0.119377
0.112523
0.105329
0.0977846
0.0900942
0.0825463
0.0754365
0.0690257
0.0635299
0.0591338
0.0560028
0.0542666
0.0539731
0.0547296
0.0566644
0.05964
0.0631506
0.132865
0.177287
0.190643
0.183732
0.166835
0.150289
0.137986
0.129067
0.121829
0.115102
0.108331
0.10129
0.0940476
0.0868324
0.0799367
0.0736621
0.0683013
0.0641379
0.0614279
0.060344
0.0606762
0.0621888
0.0651203
0.0688613
0.134022
0.1744
0.20108
0.206003
0.198049
0.180403
0.161522
0.145988
0.134404
0.125643
0.118338
0.111575
0.104871
0.0980562
0.0912293
0.0846347
0.0785943
0.0734747
0.0696606
0.0674861
0.0671242
0.0680266
0.070526
0.074421
0.137578
0.171806
0.202741
0.219928
0.221114
0.213284
0.196104
0.175922
0.157444
0.142542
0.131232
0.122477
0.115141
0.108441
0.101933
0.0955059
0.0892971
0.0836114
0.0788683
0.0755387
0.0740333
0.074286
0.0760128
0.0798389
0.142552
0.171837
0.201951
0.225
0.236552
0.236428
0.229003
0.212588
0.192088
0.171563
0.153472
0.138967
0.127866
0.119217
0.112019
0.105556
0.0994529
0.0936743
0.0884548
0.0842255
0.0815094
0.0808325
0.0817891
0.0850369
0.148374
0.174118
0.201805
0.2263
0.243569
0.251791
0.251118
0.243977
0.228598
0.208586
0.187074
0.166542
0.148869
0.134829
0.1241
0.11577
0.108928
0.102941
0.0975487
0.0928526
0.0892338
0.0873411
0.0876063
0.0900626
0.15462
0.177904
0.20302
0.226763
0.246139
0.259228
0.265056
0.263971
0.257178
0.242992
0.223995
0.202417
0.180483
0.160322
0.14338
0.130092
0.120001
0.112238
0.106002
0.100811
0.0965764
0.0936014
0.0929931
0.0946875
0.160946
0.182479
0.205239
0.22732
0.246633
0.261642
0.271445
0.275478
0.274055
0.267588
0.254605
0.236939
0.216069
0.193841
0.172262
0.153084
0.137322
0.125106
0.115899
0.10893
0.103584
0.0995487
0.0976136
0.0986714
0.167061
0.187224
0.207805
0.227834
0.245936
0.261022
0.27234
0.279413
0.282032
0.28043
0.274359
0.262546
0.246409
0.226913
0.205441
0.183692
0.16336
0.145759
0.131519
0.120563
0.112399
0.106335
0.102237
0.102373
0.172716
0.191631
0.21007
0.227801
0.244028
0.258056
0.269399
0.277712
0.282709
0.284153
0.282305
0.276709
0.266416
0.252111
0.234548
0.21476
0.194026
0.173795
0.155389
0.139703
0.127099
0.117438
0.10995
0.107607
0.177713
0.195316
0.211519
0.226728
0.240652
0.252935
0.263321
0.271605
0.277609
0.281138
0.281943
0.279981
0.274765
0.266227
0.2544
0.239398
0.222019
0.203291
0.184351
0.166303
0.150114
0.13632
0.124807
0.118585
0.181916
0.198014
0.211777
0.224283
0.235627
0.245773
0.254647
0.262163
0.268219
0.272672
0.275304
0.27586
0.274193
0.269869
0.262987
0.253777
0.241987
0.22774
0.211762
0.194949
0.178269
0.162464
0.148234
0.138876
0.185244
0.199584
0.210712
0.220335
0.228965
0.236822
0.243972
0.250399
0.256024
0.260723
0.264317
0.266518
0.267179
0.26606
0.262952
0.257689
0.250509
0.241582
0.23079
0.218293
0.204459
0.190048
0.176445
0.167169
0.187656
0.199948
0.208258
0.214928
0.220855
0.226472
0.231946
0.237279
0.242364
0.247035
0.251082
0.254267
0.256304
0.257073
0.256427
0.254188
0.250218
0.2445
0.237272
0.228835
0.219533
0.209747
0.200658
0.194384
0.189151
0.199134
0.204485
0.208228
0.21158
0.215131
0.219109
0.223512
0.228184
0.232864
0.237242
0.241009
0.243902
0.245633
0.246213
0.245524
0.243448
0.239994
0.235224
0.229261
0.222472
0.215543
0.20944
0.204497
0.18976
0.197147
0.199512
0.200451
0.201459
0.20316
0.205853
0.209514
0.213925
0.218734
0.223498
0.227801
0.231299
0.233695
0.234844
0.234865
0.233579
0.231055
0.227397
0.222769
0.217451
0.211923
0.206737
0.201262
0.189483
0.194153
0.19354
0.191834
0.190868
0.190973
0.192566
0.195612
0.199842
0.204847
0.210074
0.214955
0.219056
0.222065
0.22375
0.224247
0.223445
0.221408
0.21825
0.214135
0.20928
0.203998
0.198518
0.192469
0.188297
0.190342
0.186767
0.182772
0.180092
0.179055
0.179627
0.18209
0.186094
0.19113
0.196565
0.201662
0.205971
0.209274
0.211436
0.212425
0.212262
0.211022
0.208741
0.205621
0.201829
0.197468
0.192431
0.186959
0.186283
0.185649
0.179457
0.173714
0.169804
0.168037
0.167855
0.169761
0.173243
0.177637
0.182382
0.186571
0.189693
0.191963
0.19343
0.194115
0.194016
0.19326
0.191789
0.189742
0.187295
0.184434
0.180954
0.177124
0.183129
0.180032
0.172026
0.165377
0.161136
0.159405
0.159637
0.162329
0.165958
0.16881
0.16995
0.170636
0.170068
0.168907
0.167633
0.166312
0.164851
0.163118
0.161082
0.158791
0.156328
0.153723
0.151048
0.148238
0.177659
0.173671
0.165238
0.158935
0.155693
0.155116
0.157284
0.161421
0.165375
0.167268
0.165492
0.159467
0.153047
0.147244
0.142393
0.138329
0.134613
0.130872
0.126935
0.12274
0.118326
0.113675
0.109087
0.104268
0.168595
0.167398
0.160466
0.156154
0.155072
0.157016
0.161958
0.167932
0.171907
0.171652
0.166129
0.154912
0.144022
0.134997
0.128216
0.123047
0.118526
0.113962
0.10907
0.103842
0.0983776
0.0927317
0.0871378
0.0826124
)
;

boundaryField
{
    rotor
    {
        type            kqRWallFunction;
        value           nonuniform List<scalar> 
144
(
0.00391183
0.00741774
0.0204768
0.0427344
0.0744107
0.11621
0.00391183
0.0163318
0.0204225
0.0225634
0.0240363
0.0250227
0.0262611
0.0275627
0.028576
0.0292446
0.0295603
0.0295398
0.0291788
0.0285128
0.027658
0.0266
0.0253386
0.0249534
0.0242723
0.02318
0.0216432
0.0196512
0.0158501
0.00404435
0.00404435
0.00806994
0.0131819
0.0180589
0.0217779
0.0464372
0.00543559
0.0305161
0.0697749
0.112627
0.15495
0.194601
0.00543559
0.018393
0.0251048
0.0298448
0.0346023
0.0387944
0.0421938
0.044765
0.0465444
0.0475948
0.0479923
0.0478256
0.047203
0.0461266
0.0444993
0.0422997
0.0395304
0.0362057
0.0323617
0.0280826
0.0250349
0.022733
0.0184588
0.00467875
0.00467875
0.0119051
0.0331099
0.0700313
0.100111
0.11855
0.00458818
0.00774098
0.0177698
0.0459451
0.0826853
0.116833
0.00458818
0.0173807
0.0213795
0.0233291
0.0249648
0.0281172
0.0312998
0.0341223
0.0363856
0.0380375
0.0390745
0.0395131
0.0394306
0.0388997
0.0382784
0.0374571
0.0362673
0.0345465
0.032117
0.0288359
0.0250407
0.0226562
0.0186
0.00480483
0.00480483
0.0191267
0.045323
0.0692876
0.0917337
0.116331
0.00411596
0.0104109
0.0208519
0.0323951
0.0404267
0.054229
0.00411596
0.0166145
0.0206227
0.0226509
0.0240481
0.0249668
0.0258512
0.027453
0.0288676
0.0300132
0.0308709
0.0314522
0.0317915
0.0317828
0.0313869
0.0305947
0.0294157
0.0278777
0.0260419
0.0249339
0.0233896
0.0212013
0.0168945
0.00410952
0.00410952