/*--------------------------------*- C++ -*----------------------------------*\
  =========                 |
  \\      /  F ield         | OpenFOAM: The Open Source CFD Toolbox
   \\    /   O peration     | Website:  https://openfoam.org
    \\  /    A nd           | Version:  11
     \\/     M anipulation  |
\*---------------------------------------------------------------------------*/
FoamFile
{
    format      ascii;
    class       surfaceScalarField;
    location    "0.56";
    object      meshPhi;
}
// * * * * * * * * * * * * * * * * * * * * * * * * * * * * * * * * * * * * * //

dimensions      [0 3 -1 0 0 0 0];

internalField   nonuniform List<scalar> 
5640
(
1.36942e-16
9.81747e-07
2.42081e-16
1.37445e-06
3.76938e-16
1.76715e-06
-1.33935e-15
2.15984e-06
-3.68152e-15
2.55254e-06
2.94524e-06
5.95118e-15
1.82369e-18
9.81747e-07
-3.88826e-16
1.37445e-06
-2.60421e-15
1.76715e-06
1.94369e-15
2.15984e-06
8.06628e-15
2.55254e-06
2.94524e-06
-9.02994e-15
-1.16486e-16
9.81747e-07
1.86343e-16
1.37445e-06
-1.56235e-15
1.76715e-06
-4.21248e-15
2.15984e-06
-7.49849e-15
2.55254e-06
2.94524e-06
7.7219e-16
8.69235e-17
9.81747e-07
-1.01911e-16
1.37445e-06
2.69315e-15
1.76715e-06
7.44281e-15
2.15984e-06
3.25976e-15
2.55254e-06
2.94524e-06
-2.79792e-15
-4.84024e-17
9.81747e-07
3.95007e-17
1.37445e-06
1.94287e-16
1.76715e-06
-1.80615e-15
2.15984e-06
-4.20845e-15
2.55254e-06
2.94524e-06
5.01333e-15
-1.80103e-16
9.81747e-07
4.27606e-18
1.37445e-06
-1.84787e-15
1.76715e-06
-3.88616e-15
2.15984e-06
3.15695e-15
2.55254e-06
2.94524e-06
4.98001e-16
2.53942e-16
9.81747e-07
2.55404e-16
1.37445e-06
2.06593e-15
1.76715e-06
4.50403e-15
2.15984e-06
-2.31005e-15
2.55254e-06
2.94524e-06
5.4067e-16
2.1628e-17
9.81747e-07
-3.21707e-16
1.37445e-06
-1.14886e-15
1.76715e-06
-5.28567e-15
2.15984e-06
-3.76815e-16
2.55254e-06
2.94524e-06
-5.63984e-15
-1.43414e-16
9.81747e-07
1.66385e-16
1.37445e-06
4.19117e-15
1.76715e-06
6.34941e-15
2.15984e-06
-8.05664e-16
2.55254e-06
2.94524e-06
8.39272e-16
-6.88133e-17
9.81747e-07
-9.20401e-17
1.37445e-06
-2.76943e-15
1.76715e-06
-3.68904e-16
2.15984e-06
-1.45081e-15
2.55254e-06
2.94524e-06
-1.76729e-16
1.66301e-16
9.81747e-07
-8.86669e-17
1.37445e-06
5.69652e-16
1.76715e-06
-2.10356e-15
2.15984e-06
9.65987e-15
2.55254e-06
2.94524e-06
5.29021e-15
-1.77838e-16
9.81747e-07
-2.05492e-17
1.37445e-06
-3.45543e-16
1.76715e-06
-4.17268e-15
2.15984e-06
-2.62256e-15
2.55254e-06
2.94524e-06
5.36952e-15
1.77765e-16
9.81747e-07
2.04925e-17
1.37445e-06
3.45403e-16
1.76715e-06
4.17252e-15
2.15984e-06
2.62231e-15
2.55254e-06
2.94524e-06
-5.36957e-15
-1.66325e-16
9.81747e-07
8.86788e-17
1.37445e-06
-5.6973e-16
1.76715e-06
2.10345e-15
2.15984e-06
-9.66006e-15
2.55254e-06
2.94524e-06
-5.29029e-15
6.87895e-17
9.81747e-07
9.2028e-17
1.37445e-06
2.76942e-15
1.76715e-06
3.68744e-16
2.15984e-06
1.45083e-15
2.55254e-06
2.94524e-06
1.7677e-16
1.4339e-16
9.81747e-07
-1.66432e-16
1.37445e-06
-4.19115e-15
1.76715e-06
-6.34941e-15
2.15984e-06
8.0567e-16
2.55254e-06
2.94524e-06
-8.39395e-16
-2.16647e-17
9.81747e-07
3.21657e-16
1.37445e-06
1.1489e-15
1.76715e-06
5.28563e-15
2.15984e-06
3.76726e-16
2.55254e-06
2.94524e-06
5.63957e-15
-2.53972e-16
9.81747e-07
-2.55441e-16
1.37445e-06
-2.06597e-15
1.76715e-06
-4.50419e-15
2.15984e-06
2.30999e-15
2.55254e-06
2.94524e-06
-5.4085e-16
1.80085e-16
9.81747e-07
-4.39999e-18
1.37445e-06
1.84781e-15
1.76715e-06
3.88605e-15
2.15984e-06
-3.15702e-15
2.55254e-06
2.94524e-06
-4.98321e-16
4.83613e-17
9.81747e-07
-3.95275e-17
1.37445e-06
-1.94345e-16
1.76715e-06
1.80602e-15
2.15984e-06
4.20863e-15
2.55254e-06
2.94524e-06
-5.01332e-15
-8.69597e-17
9.81747e-07
1.01931e-16
1.37445e-06
-2.69312e-15
1.76715e-06
-7.44282e-15
2.15984e-06
-3.25986e-15
2.55254e-06
2.94524e-06
2.79802e-15
1.16471e-16
9.81747e-07
-1.86395e-16
1.37445e-06
1.56236e-15
1.76715e-06
4.21258e-15
2.15984e-06
7.49825e-15
2.55254e-06
2.94524e-06
-7.72386e-16
-1.84148e-18
9.81747e-07
3.88799e-16
1.37445e-06
2.60417e-15
1.76715e-06
-1.94366e-15
2.15984e-06
-8.06641e-15
2.55254e-06
2.94524e-06
9.02983e-15
-1.36951e-16
-2.42079e-16
-3.77013e-16
1.33924e-15
3.68158e-15
-5.95124e-15
-1.13362e-14
4.53785e-06
-4.53785e-06
-4.81221e-16
5.23599e-06
-5.23599e-06
-5.35736e-15
5.93412e-06
-5.93412e-06
-1.13038e-14
6.63225e-06
-6.63225e-06
4.86914e-15
7.33038e-06
-7.33038e-06
-1.10942e-15
8.02851e-06
-8.02851e-06
-8.15932e-15
8.72664e-06
-8.72664e-06
1.30442e-14
9.42478e-06
-9.42478e-06
5.94818e-15
1.01229e-05
-1.01229e-05
-1.99546e-15
1.0821e-05
-1.0821e-05
2.43874e-14
1.15192e-05
-1.15192e-05
1.61889e-14
1.22173e-05
-1.22173e-05
-3.2787e-14
1.29154e-05
-1.29154e-05
-3.05369e-15
1.36136e-05
-1.36136e-05
-1.44422e-14
1.43117e-05
-1.43117e-05
-2.69037e-14
1.50098e-05
-1.50098e-05
7.74032e-15
1.5708e-05
-1.5708e-05
-4.4377e-15
1.64061e-05
-1.64061e-05
-1.79981e-14
1.71042e-05
-1.71042e-05
2.18166e-14
1.78024e-05
-1.78024e-05
8.21084e-15
1.85005e-05
-1.85005e-05
-6.0855e-15
1.91986e-05
-1.91986e-05
3.89164e-14
1.98967e-05
-1.98967e-05
2.05949e-05
-2.05949e-05
9.39889e-15
4.53785e-06
5.20019e-16
5.23599e-06
7.52848e-15
5.93412e-06
-4.41201e-15
6.63225e-06
3.7829e-15
7.33038e-06
1.33849e-14
8.02851e-06
-2.11047e-15
8.72664e-06
8.52851e-15
9.42478e-06
-1.00281e-14
1.01229e-05
1.86552e-15
1.0821e-05
-2.02028e-14
1.15192e-05
-7.01324e-15
1.22173e-05
7.51087e-15
1.29154e-05
2.36072e-14
1.36136e-05
-2.04298e-15
1.43117e-05
1.48333e-14
1.50098e-05
-1.3878e-14
1.5708e-05
2.38973e-15
1.64061e-05
2.04114e-14
1.71042e-05
-7.02045e-15
1.78024e-05
1.20684e-14
1.85005e-05
-2.59472e-14
1.91986e-05
1.84662e-15
1.98967e-05
2.05949e-05
-8.676e-15
4.53785e-06
1.22922e-14
5.23599e-06
1.88306e-15
5.93412e-06
8.9016e-15
6.63225e-06
-5.10822e-15
7.33038e-06
-2.19904e-14
8.02851e-06
1.22647e-14
8.72664e-06
-5.37366e-15
9.42478e-06
4.45555e-15
1.01229e-05
-1.43061e-14
1.0821e-05
-7.32617e-15
1.15192e-05
7.04137e-15
1.22173e-05
2.39959e-14
1.29154e-05
-7.55558e-15
1.36136e-05
9.7997e-15
1.43117e-05
-1.62381e-14
1.50098e-05
4.02943e-14
1.5708e-05
1.44447e-14
1.64061e-05
-1.37046e-14
1.71042e-05
-7.89805e-15
1.78024e-05
-3.92503e-14
1.85005e-05
4.27532e-14
1.91986e-05
-8.85357e-15
1.98967e-05
2.05949e-05
5.98594e-15
4.53785e-06
2.18695e-16
5.23599e-06
-6.43574e-15
5.93412e-06
6.06388e-15
6.63225e-06
-2.09271e-15
7.33038e-06
1.61766e-14
8.02851e-06
-1.88306e-14
8.72664e-06
-2.35068e-15
9.42478e-06
9.17164e-15
1.01229e-05
-4.71029e-15
1.0821e-05
2.16268e-14
1.15192e-05
-2.96442e-14
1.22173e-05
-9.28992e-15
1.29154e-05
-1.8907e-14
1.36136e-05
4.46654e-15
1.43117e-05
3.01553e-14
1.50098e-05
-2.62161e-14
1.5708e-05
4.35785e-16
1.64061e-05
-2.11725e-14
1.71042e-05
1.87143e-14
1.78024e-05
-3.92072e-15
1.85005e-05
-2.91539e-14
1.91986e-05
1.52327e-14
1.98967e-05
2.05949e-05
6.71499e-15
4.53785e-06
-7.30685e-15
5.23599e-06
1.11005e-14
5.93412e-06
-4.24115e-15
6.63225e-06
1.51019e-14
7.33038e-06
-5.20985e-15
8.02851e-06
1.70127e-14
8.72664e-06
-3.94147e-15
9.42478e-06
-2.94423e-16
1.01229e-05
6.61228e-15
1.0821e-05
1.37056e-14
1.15192e-05
1.01832e-14
1.22173e-05
1.82184e-14
1.29154e-05
1.43671e-14
1.36136e-05
2.33413e-14
1.43117e-05
-2.53432e-14
1.50098e-05
2.90714e-14
1.5708e-05
-7.82867e-15
1.64061e-05
3.54172e-14
1.71042e-05
-4.514e-15
1.78024e-05
4.23665e-14
1.85005e-05
-5.89123e-16
1.91986e-05
-8.73227e-15
1.98967e-05
2.05949e-05
-4.63053e-15
4.53785e-06
5.79773e-15
5.23599e-06
-1.61508e-14
5.93412e-06
-5.97443e-15
6.63225e-06
-8.55551e-15
7.33038e-06
4.22363e-15
8.02851e-06
-8.18841e-15
8.72664e-06
6.99957e-15
9.42478e-06
-2.42298e-14
1.01229e-05
-7.76939e-15
1.0821e-05
-2.2764e-14
1.15192e-05
8.34908e-15
1.22173e-05
-7.4026e-15
1.29154e-05
2.8266e-14
1.36136e-05
-4.5711e-14
1.43117e-05
-8.22149e-15
1.50098e-05
-2.82272e-14
1.5708e-05
-2.34202e-15
1.64061e-05
-6.94566e-15
1.71042e-05
2.21479e-14
1.78024e-05
-3.41105e-14
1.85005e-05
-3.74156e-15
1.91986e-05
-3.23425e-14
1.98967e-05
2.05949e-05
-8.92494e-15
4.53785e-06
-2.28869e-15
5.23599e-06
-2.22432e-15
5.93412e-06
6.61602e-15
6.63225e-06
-3.38819e-15
7.33038e-06
-3.90732e-15
8.02851e-06
-6.41948e-15
8.72664e-06
-7.15767e-15
9.42478e-06
6.81008e-15
1.01229e-05
6.98319e-15
1.0821e-05
-9.06526e-15
1.15192e-05
6.75946e-15
1.22173e-05
-2.88889e-14
1.29154e-05
-1.22349e-14
1.36136e-05
4.80331e-15
1.43117e-05
2.50256e-14
1.50098e-05
3.86199e-15
1.5708e-05
3.60553e-15
1.64061e-05
-2.04818e-14
1.71042e-05
-2.17594e-14
1.78024e-05
3.46741e-15
1.85005e-05
2.90391e-14
1.91986e-05
-1.65734e-15
1.98967e-05
2.05949e-05
6.21592e-15
4.53785e-06
-3.8794e-15
5.23599e-06
1.5422e-14
5.93412e-06
-7.06525e-15
6.63225e-06
-2.21101e-15
7.33038e-06
1.42928e-15
8.02851e-06
-5.49426e-15
8.72664e-06
1.32258e-14
9.42478e-06
6.04567e-15
1.01229e-05
-1.74493e-14
1.0821e-05
2.08867e-14
1.15192e-05
-2.14477e-14
1.22173e-05
1.91328e-14
1.29154e-05
-7.31737e-15
1.36136e-05
3.84858e-14
1.43117e-05
-1.29228e-14
1.50098e-05
-1.88544e-15
1.5708e-05
5.71713e-15
1.64061e-05
-7.585e-15
1.71042e-05
2.76586e-14
1.78024e-05
1.40974e-14
1.85005e-05
-5.31426e-14
1.91986e-05
3.90865e-14
1.98967e-05
2.05949e-05
-1.49849e-15
4.53785e-06
1.08969e-14
5.23599e-06
-6.5995e-15
5.93412e-06
7.26544e-15
6.63225e-06
6.17439e-15
7.33038e-06
2.48867e-15
8.02851e-06
-9.65384e-16
8.72664e-06
-4.36479e-15
9.42478e-06
-8.90108e-15
1.01229e-05
1.38631e-14
1.0821e-05
1.06906e-14
1.15192e-05
6.24853e-15
1.22173e-05
-1.28752e-16
1.29154e-05
-3.43768e-15
1.36136e-05
-1.10441e-14
1.43117e-05
-1.77644e-14
1.50098e-05
1.76809e-14
1.5708e-05
9.95467e-15
1.64061e-05
3.32895e-15
1.71042e-05
-3.29725e-14
1.78024e-05
-1.04221e-14
1.85005e-05
3.00645e-14
1.91986e-05
-5.99945e-14
1.98967e-05
2.05949e-05
5.17014e-15
4.53785e-06
-7.45565e-15
5.23599e-06
-7.56516e-16
5.93412e-06
6.8395e-15
6.63225e-06
-9.97455e-15
7.33038e-06
-1.66519e-15
8.02851e-06
9.21817e-15
8.72664e-06
-1.34589e-14
9.42478e-06
2.32226e-14
1.01229e-05
1.04721e-14
1.0821e-05
-1.72728e-14
1.15192e-05
-3.02606e-15
1.22173e-05
1.13965e-14
1.29154e-05
-1.98177e-14
1.36136e-05
-4.67948e-15
1.43117e-05
5.03072e-14
1.50098e-05
-2.40475e-14
1.5708e-05
-6.66077e-15
1.64061e-05
1.42631e-14
1.71042e-05
1.6469e-15
1.78024e-05
-6.81133e-15
1.85005e-05
1.44415e-14
1.91986e-05
5.07597e-14
1.98967e-05
2.05949e-05
-6.1973e-15
4.53785e-06
2.87189e-17
5.23599e-06
1.15116e-14
5.93412e-06
-2.06258e-14
6.63225e-06
5.36692e-15
7.33038e-06
1.22156e-15
8.02851e-06
-4.78611e-17
8.72664e-06
1.23936e-14
9.42478e-06
-1.32261e-14
1.01229e-05
-1.88952e-14
1.0821e-05
-4.96451e-15
1.15192e-05
-7.1524e-15
1.22173e-05
-1.48873e-14
1.29154e-05
3.53376e-14
1.36136e-05
-1.95631e-18
1.43117e-05
-4.31364e-14
1.50098e-05
1.35601e-14
1.5708e-05
-2.82568e-14
1.64061e-05
2.45924e-15
1.71042e-05
-1.02417e-14
1.78024e-05
2.38018e-14
1.85005e-05
1.38708e-14
1.91986e-05
-4.55616e-14
1.98967e-05
2.05949e-05
-1.90694e-15
4.53785e-06
1.13071e-15
5.23599e-06
-2.16623e-14
5.93412e-06
9.62399e-15
6.63225e-06
1.51376e-14
7.33038e-06
-1.40651e-14
8.02851e-06
8.09244e-15
8.72664e-06
-2.69601e-14
9.42478e-06
-1.96652e-15
1.01229e-05
2.97154e-14
1.0821e-05
-1.17465e-14
1.15192e-05
1.98679e-14
1.22173e-05
-2.74452e-14
1.29154e-05
-2.06142e-14
1.36136e-05
1.60396e-14
1.43117e-05
-4.61345e-15
1.50098e-05
4.69334e-15
1.5708e-05
4.79664e-14
1.64061e-05
-1.37396e-14
1.71042e-05
3.23697e-14
1.78024e-05
-3.51875e-14
1.85005e-05
-2.49088e-14
1.91986e-05
7.1912e-14
1.98967e-05
2.05949e-05
1.90628e-15
4.53785e-06
-1.13084e-15
5.23599e-06
2.16617e-14
5.93412e-06
-9.62386e-15
6.63225e-06
-1.51366e-14
7.33038e-06
1.4065e-14
8.02851e-06
-8.09456e-15
8.72664e-06
2.69595e-14
9.42478e-06
1.96469e-15
1.01229e-05
-2.97174e-14
1.0821e-05
1.17443e-14
1.15192e-05
-1.98661e-14
1.22173e-05
2.74446e-14
1.29154e-05
2.06172e-14
1.36136e-05
-1.60433e-14
1.43117e-05
4.61319e-15
1.50098e-05
-4.69244e-15
1.5708e-05
-4.79711e-14
1.64061e-05
1.37414e-14
1.71042e-05
-3.23782e-14
1.78024e-05
3.51837e-14
1.85005e-05
2.4901e-14
1.91986e-05
-7.19171e-14
1.98967e-05
2.05949e-05
6.19708e-15
4.53785e-06
-2.88799e-17
5.23599e-06
-1.15121e-14
5.93412e-06
2.06259e-14
6.63225e-06
-5.36751e-15
7.33038e-06
-1.22154e-15
8.02851e-06
4.67087e-17
8.72664e-06
-1.23949e-14
9.42478e-06
1.32253e-14
1.01229e-05
1.88949e-14
1.0821e-05
4.96443e-15
1.15192e-05
7.15419e-15
1.22173e-05
1.48885e-14
1.29154e-05
-3.53396e-14
1.36136e-05
1.59798e-18
1.43117e-05
4.31343e-14
1.50098e-05
-1.3565e-14
1.5708e-05
2.82545e-14
1.64061e-05
-2.45229e-15
1.71042e-05
1.02394e-14
1.78024e-05
-2.38053e-14
1.85005e-05
-1.3874e-14
1.91986e-05
4.55652e-14
1.98967e-05
2.05949e-05
-5.17009e-15
4.53785e-06
7.45551e-15
5.23599e-06
7.5634e-16
5.93412e-06
-6.83971e-15
6.63225e-06
9.97423e-15
7.33038e-06
1.66425e-15
8.02851e-06
-9.21927e-15
8.72664e-06
1.34589e-14
9.42478e-06
-2.32223e-14
1.01229e-05
-1.04723e-14
1.0821e-05
1.72724e-14
1.15192e-05
3.02536e-15
1.22173e-05
-1.13966e-14
1.29154e-05
1.98155e-14
1.36136e-05
4.67861e-15
1.43117e-05
-5.03083e-14
1.50098e-05
2.40442e-14
1.5708e-05
6.65702e-15
1.64061e-05
-1.42612e-14
1.71042e-05
-1.65011e-15
1.78024e-05
6.8087e-15
1.85005e-05
-1.44403e-14
1.91986e-05
-5.07618e-14
1.98967e-05
2.05949e-05
1.49866e-15
4.53785e-06
-1.08968e-14
5.23599e-06
6.59927e-15
5.93412e-06
-7.26596e-15
6.63225e-06
-6.17536e-15
7.33038e-06
-2.48936e-15
8.02851e-06
9.64154e-16
8.72664e-06
4.36554e-15
9.42478e-06
8.9005e-15
1.01229e-05
-1.38636e-14
1.0821e-05
-1.06901e-14
1.15192e-05
-6.25113e-15
1.22173e-05
1.26031e-16
1.29154e-05
3.43675e-15
1.36136e-05
1.10431e-14
1.43117e-05
1.77644e-14
1.50098e-05
-1.76827e-14
1.5708e-05
-9.95744e-15
1.64061e-05
-3.32941e-15
1.71042e-05
3.29705e-14
1.78024e-05
1.04232e-14
1.85005e-05
-3.00688e-14
1.91986e-05
5.99904e-14
1.98967e-05
2.05949e-05
-6.21567e-15
4.53785e-06
3.87917e-15
5.23599e-06
-1.54221e-14
5.93412e-06
7.06483e-15
6.63225e-06
2.21017e-15
7.33038e-06
-1.42977e-15
8.02851e-06
5.49262e-15
8.72664e-06
-1.32272e-14
9.42478e-06
-6.04601e-15
1.01229e-05
1.74504e-14
1.0821e-05
-2.08883e-14
1.15192e-05
2.14439e-14
1.22173e-05
-1.91341e-14
1.29154e-05
7.31555e-15
1.36136e-05
-3.84874e-14
1.43117e-05
1.29203e-14
1.50098e-05
1.88087e-15
1.5708e-05
-5.71909e-15
1.64061e-05
7.58975e-15
1.71042e-05
-2.7658e-14
1.78024e-05
-1.40977e-14
1.85005e-05
5.31395e-14
1.91986e-05
-3.90882e-14
1.98967e-05
2.05949e-05
8.92513e-15
4.53785e-06
2.2888e-15
5.23599e-06
2.22388e-15
5.93412e-06
-6.61667e-15
6.63225e-06
3.38821e-15
7.33038e-06
3.90644e-15
8.02851e-06
6.41808e-15
8.72664e-06
7.15804e-15
9.42478e-06
-6.80972e-15
1.01229e-05
-6.98382e-15
1.0821e-05
9.0639e-15
1.15192e-05
-6.76001e-15
1.22173e-05
2.88891e-14
1.29154e-05
1.22334e-14
1.36136e-05
-4.80584e-15
1.43117e-05
-2.50296e-14
1.50098e-05
-3.86039e-15
1.5708e-05
-3.61028e-15
1.64061e-05
2.04846e-14
1.71042e-05
2.17594e-14
1.78024e-05
-3.46661e-15
1.85005e-05
-2.90416e-14
1.91986e-05
1.65988e-15
1.98967e-05
2.05949e-05
4.63043e-15
4.53785e-06
-5.79758e-15
5.23599e-06
1.61501e-14
5.93412e-06
5.9744e-15
6.63225e-06
8.55447e-15
7.33038e-06
-4.22539e-15
8.02851e-06
8.18646e-15
8.72664e-06
-6.99878e-15
9.42478e-06
2.42292e-14
1.01229e-05
7.76935e-15
1.0821e-05
2.27639e-14
1.15192e-05
-8.35149e-15
1.22173e-05
7.40568e-15
1.29154e-05
-2.82676e-14
1.36136e-05
4.57117e-14
1.43117e-05
8.21933e-15
1.50098e-05
2.82284e-14
1.5708e-05
2.33644e-15
1.64061e-05
6.94727e-15
1.71042e-05
-2.21514e-14
1.78024e-05
3.41114e-14
1.85005e-05
3.74001e-15
1.91986e-05
3.23448e-14
1.98967e-05
2.05949e-05
-6.71498e-15
4.53785e-06
7.3068e-15
5.23599e-06
-1.11014e-14
5.93412e-06
4.2411e-15
6.63225e-06
-1.5103e-14
7.33038e-06
5.20878e-15
8.02851e-06
-1.70131e-14
8.72664e-06
3.94069e-15
9.42478e-06
2.92972e-16
1.01229e-05
-6.61255e-15
1.0821e-05
-1.37064e-14
1.15192e-05
-1.01857e-14
1.22173e-05
-1.82187e-14
1.29154e-05
-1.43706e-14
1.36136e-05
-2.33402e-14
1.43117e-05
2.53435e-14
1.50098e-05
-2.90742e-14
1.5708e-05
7.82523e-15
1.64061e-05
-3.54152e-14
1.71042e-05
4.50947e-15
1.78024e-05
-4.2373e-14
1.85005e-05
5.85976e-16
1.91986e-05
8.73312e-15
1.98967e-05
2.05949e-05
-5.98591e-15
4.53785e-06
-2.19032e-16
5.23599e-06
6.43552e-15
5.93412e-06
-6.06387e-15
6.63225e-06
2.0924e-15
7.33038e-06
-1.61778e-14
8.02851e-06
1.88311e-14
8.72664e-06
2.3505e-15
9.42478e-06
-9.17331e-15
1.01229e-05
4.70978e-15
1.0821e-05
-2.16274e-14
1.15192e-05
2.96438e-14
1.22173e-05
9.28857e-15
1.29154e-05
1.89036e-14
1.36136e-05
-4.46562e-15
1.43117e-05
-3.0157e-14
1.50098e-05
2.62171e-14
1.5708e-05
-4.34512e-16
1.64061e-05
2.11714e-14
1.71042e-05
-1.87181e-14
1.78024e-05
3.91734e-15
1.85005e-05
2.91564e-14
1.91986e-05
-1.5232e-14
1.98967e-05
2.05949e-05
8.67612e-15
4.53785e-06
-1.22923e-14
5.23599e-06
-1.8833e-15
5.93412e-06
-8.90302e-15
6.63225e-06
5.108e-15
7.33038e-06
2.19908e-14
8.02851e-06
-1.22648e-14
8.72664e-06
5.37372e-15
9.42478e-06
-4.45688e-15
1.01229e-05
1.43047e-14
1.0821e-05
7.3252e-15
1.15192e-05
-7.04176e-15
1.22173e-05
-2.3996e-14
1.29154e-05
7.55374e-15
1.36136e-05
-9.80028e-15
1.43117e-05
1.62326e-14
1.50098e-05
-4.02961e-14
1.5708e-05
-1.44466e-14
1.64061e-05
1.3702e-14
1.71042e-05
7.89642e-15
1.78024e-05
3.92576e-14
1.85005e-05
-4.27537e-14
1.91986e-05
8.85154e-15
1.98967e-05
2.05949e-05
-9.39899e-15
4.53785e-06
-5.20061e-16
5.23599e-06
-7.52897e-15
5.93412e-06
4.41126e-15
6.63225e-06
-3.78356e-15
7.33038e-06
-1.33855e-14
8.02851e-06
2.10941e-15
8.72664e-06
-8.52938e-15
9.42478e-06
1.0027e-14
1.01229e-05
-1.86592e-15
1.0821e-05
2.02032e-14
1.15192e-05
7.01056e-15
1.22173e-05
-7.51229e-15
1.29154e-05
-2.36096e-14
1.36136e-05
2.04105e-15
1.43117e-05
-1.4837e-14
1.50098e-05
1.38784e-14
1.5708e-05
-2.396e-15
1.64061e-05
-2.04099e-14
1.71042e-05
7.01539e-15
1.78024e-05
-1.20672e-14
1.85005e-05
2.59424e-14
1.91986e-05
-1.84793e-15
1.98967e-05
2.05949e-05
1.13359e-14
4.53785e-06
4.81359e-16
5.23599e-06
5.35686e-15
5.93412e-06
1.13036e-14
6.63225e-06
-4.8692e-15
7.33038e-06
1.10856e-15
8.02851e-06
8.15795e-15
8.72664e-06
-1.30439e-14
9.42478e-06
-5.9509e-15
1.01229e-05
1.99616e-15
1.0821e-05
-2.43867e-14
1.15192e-05
-1.61915e-14
1.22173e-05
3.27852e-14
1.29154e-05
3.05218e-15
1.36136e-05
1.44405e-14
1.43117e-05
2.68997e-14
1.50098e-05
-7.73823e-15
1.5708e-05
4.43424e-15
1.64061e-05
1.80019e-14
1.71042e-05
-2.18223e-14
1.78024e-05
-8.21409e-15
1.85005e-05
6.07629e-15
1.91986e-05
-3.89223e-14
1.98967e-05
2.05949e-05
1.36917e-16
9.81747e-07
2.42081e-16
1.37445e-06
3.76889e-16
1.76715e-06
-1.33933e-15
2.15984e-06
-3.68151e-15
2.55254e-06
2.94524e-06
5.95112e-15
1.82369e-18
9.81747e-07
-3.88826e-16
1.37445e-06
-2.60421e-15
1.76715e-06
1.94369e-15
2.15984e-06
8.06628e-15
2.55254e-06
2.94524e-06
-9.02994e-15
-1.16486e-16
9.81747e-07
1.86343e-16
1.37445e-06
-1.56235e-15
1.76715e-06
-4.21248e-15
2.15984e-06
-7.49849e-15
2.55254e-06
2.94524e-06
7.7219e-16
8.69235e-17
9.81747e-07
-1.01911e-16
1.37445e-06
2.69315e-15
1.76715e-06
7.44281e-15
2.15984e-06
3.25976e-15
2.55254e-06
2.94524e-06
-2.79792e-15
-4.84024e-17
9.81747e-07
3.95007e-17
1.37445e-06
1.94287e-16
1.76715e-06
-1.80615e-15
2.15984e-06
-4.20845e-15
2.55254e-06
2.94524e-06
5.01333e-15
-1.80103e-16
9.81747e-07
4.27606e-18
1.37445e-06
-1.84787e-15
1.76715e-06
-3.88616e-15
2.15984e-06
3.15695e-15
2.55254e-06
2.94524e-06
4.98001e-16
2.53942e-16
9.81747e-07
2.55404e-16
1.37445e-06
2.06593e-15
1.76715e-06
4.50403e-15
2.15984e-06
-2.31005e-15
2.55254e-06
2.94524e-06
5.4067e-16
2.1628e-17
9.81747e-07
-3.21707e-16
1.37445e-06
-1.14886e-15
1.76715e-06
-5.28567e-15
2.15984e-06
-3.76815e-16
2.55254e-06
2.94524e-06
-5.63984e-15
-1.43414e-16
9.81747e-07
1.66385e-16
1.37445e-06
4.19117e-15
1.76715e-06
6.34941e-15
2.15984e-06
-8.05664e-16
2.55254e-06
2.94524e-06
8.39272e-16
-6.88133e-17
9.81747e-07
-9.20401e-17
1.37445e-06
-2.76943e-15
1.76715e-06
-3.68904e-16
2.15984e-06
-1.45081e-15
2.55254e-06
2.94524e-06
-1.76729e-16
1.66301e-16
9.81747e-07
-8.86669e-17
1.37445e-06
5.69652e-16
1.76715e-06
-2.10356e-15
2.15984e-06
9.65987e-15
2.55254e-06
2.94524e-06
5.29021e-15
-1.77838e-16
9.81747e-07
-2.05492e-17
1.37445e-06
-3.45543e-16
1.76715e-06
-4.17268e-15
2.15984e-06
-2.62256e-15
2.55254e-06
2.94524e-06
5.36952e-15
1.77765e-16
9.81747e-07
2.04925e-17
1.37445e-06
3.45403e-16
1.76715e-06
4.17252e-15
2.15984e-06
2.62231e-15
2.55254e-06
2.94524e-06
-5.36957e-15
-1.66325e-16
9.81747e-07
8.86788e-17
1.37445e-06
-5.6973e-16
1.76715e-06
2.10345e-15
2.15984e-06
-9.66006e-15
2.55254e-06
2.94524e-06
-5.29029e-15
6.87895e-17
9.81747e-07
9.2028e-17
1.37445e-06
2.76942e-15
1.76715e-06
3.68744e-16
2.15984e-06
1.45083e-15
2.55254e-06
2.94524e-06
1.7677e-16
1.4339e-16
9.81747e-07
-1.66432e-16
1.37445e-06
-4.19115e-15
1.76715e-06
-6.34941e-15
2.15984e-06
8.0567e-16
2.55254e-06
2.94524e-06
-8.39395e-16
-2.16647e-17
9.81747e-07
3.21657e-16
1.37445e-06
1.1489e-15
1.76715e-06
5.28563e-15
2.15984e-06
3.76726e-16
2.55254e-06
2.94524e-06
5.63957e-15
-2.53972e-16
9.81747e-07
-2.55441e-16
1.37445e-06
-2.06597e-15
1.76715e-06
-4.50419e-15
2.15984e-06
2.30999e-15
2.55254e-06
2.94524e-06
-5.4085e-16
1.80085e-16
9.81747e-07
-4.39999e-18
1.37445e-06
1.84781e-15
1.76715e-06
3.88605e-15
2.15984e-06
-3.15702e-15
2.55254e-06
2.94524e-06
-4.98321e-16
4.83613e-17
9.81747e-07
-3.95275e-17
1.37445e-06
-1.94345e-16
1.76715e-06
1.80602e-15
2.15984e-06
4.20863e-15
2.55254e-06
2.94524e-06
-5.01332e-15
-8.69597e-17
9.81747e-07
1.01931e-16
1.37445e-06
-2.69312e-15
1.76715e-06
-7.44282e-15
2.15984e-06
-3.25986e-15
2.55254e-06
2.94524e-06
2.79802e-15
1.16471e-16
9.81747e-07
-1.86395e-16
1.37445e-06
1.56236e-15
1.76715e-06
4.21258e-15
2.15984e-06
7.49825e-15
2.55254e-06
2.94524e-06
-7.72386e-16
-1.84148e-18
9.81747e-07
3.88799e-16
1.37445e-06
2.60417e-15
1.76715e-06
-1.94366e-15
2.15984e-06
-8.06641e-15
2.55254e-06
2.94524e-06
9.02983e-15
-1.3695e-16
-2.42062e-16
-3.7702e-16
1.33921e-15
3.68141e-15
-5.95121e-15
-1.13361e-14
4.53785e-06
-4.81356e-16
5.23599e-06
-5.35734e-15
5.93412e-06
-1.13039e-14
6.63225e-06
4.86883e-15
7.33038e-06
-1.10965e-15
8.02851e-06
-8.15915e-15
8.72664e-06
1.30438e-14
9.42478e-06
5.94881e-15
1.01229e-05
-1.99621e-15
1.0821e-05
2.43875e-14
1.15192e-05
1.61884e-14
1.22173e-05
-3.27866e-14
1.29154e-05
-3.05333e-15
1.36136e-05
-1.44407e-14
1.43117e-05
-2.69038e-14
1.50098e-05
7.73818e-15
1.5708e-05
-4.43858e-15
1.64061e-05
-1.79991e-14
1.71042e-05
2.18193e-14
1.78024e-05
8.21011e-15
1.85005e-05
-6.0881e-15
1.91986e-05
3.89193e-14
1.98967e-05
2.05949e-05
9.39889e-15
4.53785e-06
5.20019e-16
5.23599e-06
7.52848e-15
5.93412e-06
-4.41201e-15
6.63225e-06
3.7829e-15
7.33038e-06
1.33849e-14
8.02851e-06
-2.11047e-15
8.72664e-06
8.52851e-15
9.42478e-06
-1.00281e-14
1.01229e-05
1.86552e-15
1.0821e-05
-2.02028e-14
1.15192e-05
-7.01324e-15
1.22173e-05
7.51087e-15
1.29154e-05
2.36072e-14
1.36136e-05
-2.04298e-15
1.43117e-05
1.48333e-14
1.50098e-05
-1.3878e-14
1.5708e-05
2.38973e-15
1.64061e-05
2.04114e-14
1.71042e-05
-7.02045e-15
1.78024e-05
1.20684e-14
1.85005e-05
-2.59472e-14
1.91986e-05
1.84662e-15
1.98967e-05
2.05949e-05
-8.676e-15
4.53785e-06
1.22922e-14
5.23599e-06
1.88306e-15
5.93412e-06
8.9016e-15
6.63225e-06
-5.10822e-15
7.33038e-06
-2.19904e-14
8.02851e-06
1.22647e-14
8.72664e-06
-5.37366e-15
9.42478e-06
4.45555e-15
1.01229e-05
-1.43061e-14
1.0821e-05
-7.32617e-15
1.15192e-05
7.04137e-15
1.22173e-05
2.39959e-14
1.29154e-05
-7.55558e-15
1.36136e-05
9.7997e-15
1.43117e-05
-1.62381e-14
1.50098e-05
4.02943e-14
1.5708e-05
1.44447e-14
1.64061e-05
-1.37046e-14
1.71042e-05
-7.89805e-15
1.78024e-05
-3.92503e-14
1.85005e-05
4.27532e-14
1.91986e-05
-8.85357e-15
1.98967e-05
2.05949e-05
5.98594e-15
4.53785e-06
2.18695e-16
5.23599e-06
-6.43574e-15
5.93412e-06
6.06388e-15
6.63225e-06
-2.09271e-15
7.33038e-06
1.61766e-14
8.02851e-06
-1.88306e-14
8.72664e-06
-2.35068e-15
9.42478e-06
9.17164e-15
1.01229e-05
-4.71029e-15
1.0821e-05
2.16268e-14
1.15192e-05
-2.96442e-14
1.22173e-05
-9.28992e-15
1.29154e-05
-1.8907e-14
1.36136e-05
4.46654e-15
1.43117e-05
3.01553e-14
1.50098e-05
-2.62161e-14
1.5708e-05
4.35785e-16
1.64061e-05
-2.11725e-14
1.71042e-05
1.87143e-14
1.78024e-05
-3.92072e-15
1.85005e-05
-2.91539e-14
1.91986e-05
1.52327e-14
1.98967e-05
2.05949e-05
6.71499e-15
4.53785e-06
-7.30685e-15
5.23599e-06
1.11005e-14
5.93412e-06
-4.24115e-15
6.63225e-06
1.51019e-14
7.33038e-06
-5.20985e-15
8.02851e-06
1.70127e-14
8.72664e-06
-3.94147e-15
9.42478e-06
-2.94423e-16
1.01229e-05
6.61228e-15
1.0821e-05
1.37056e-14
1.15192e-05
1.01832e-14
1.22173e-05
1.82184e-14
1.29154e-05
1.43671e-14
1.36136e-05
2.33413e-14
1.43117e-05
-2.53432e-14
1.50098e-05
2.90714e-14
1.5708e-05
-7.82867e-15
1.64061e-05
3.54172e-14
1.71042e-05
-4.514e-15
1.78024e-05
4.23665e-14
1.85005e-05
-5.89123e-16
1.91986e-05
-8.73227e-15
1.98967e-05
2.05949e-05
-4.63053e-15
4.53785e-06
5.79773e-15
5.23599e-06
-1.61508e-14
5.93412e-06
-5.97443e-15
6.63225e-06
-8.55551e-15
7.33038e-06
4.22363e-15
8.02851e-06
-8.18841e-15
8.72664e-06
6.99957e-15
9.42478e-06
-2.42298e-14
1.01229e-05
-7.76939e-15
1.0821e-05
-2.2764e-14
1.15192e-05
8.34908e-15
1.22173e-05
-7.4026e-15
1.29154e-05
2.8266e-14
1.36136e-05
-4.5711e-14
1.43117e-05
-8.22149e-15
1.50098e-05
-2.82272e-14
1.5708e-05
-2.34202e-15
1.64061e-05
-6.94566e-15
1.71042e-05
2.21479e-14
1.78024e-05
-3.41105e-14
1.85005e-05
-3.74156e-15
1.91986e-05
-3.23425e-14
1.98967e-05
2.05949e-05
-8.92494e-15
4.53785e-06
-2.28869e-15
5.23599e-06
-2.22432e-15
5.93412e-06
6.61602e-15
6.63225e-06
-3.38819e-15
7.33038e-06
-3.90732e-15
8.02851e-06
-6.41948e-15
8.72664e-06
-7.15767e-15
9.42478e-06
6.81008e-15
1.01229e-05
6.98319e-15
1.0821e-05
-9.06526e-15
1.15192e-05
6.75946e-15
1.22173e-05
-2.88889e-14
1.29154e-05
-1.22349e-14
1.36136e-05
4.80331e-15
1.43117e-05
2.50256e-14
1.50098e-05
3.86199e-15
1.5708e-05
3.60553e-15
1.64061e-05
-2.04818e-14
1.71042e-05
-2.17594e-14
1.78024e-05
3.46741e-15
1.85005e-05
2.90391e-14
1.91986e-05
-1.65734e-15
1.98967e-05
2.05949e-05
6.21592e-15
4.53785e-06
-3.8794e-15
5.23599e-06
1.5422e-14
5.93412e-06
-7.06525e-15
6.63225e-06
-2.21101e-15
7.33038e-06
1.42928e-15
8.02851e-06
-5.49426e-15
8.72664e-06
1.32258e-14
9.42478e-06
6.04567e-15
1.01229e-05
-1.74493e-14
1.0821e-05
2.08867e-14
1.15192e-05
-2.14477e-14
1.22173e-05
1.91328e-14
1.29154e-05
-7.31737e-15
1.36136e-05
3.84858e-14
1.43117e-05
-1.29228e-14
1.50098e-05
-1.88544e-15
1.5708e-05
5.71713e-15
1.64061e-05
-7.585e-15
1.71042e-05
2.76586e-14
1.78024e-05
1.40974e-14
1.85005e-05
-5.31426e-14
1.91986e-05
3.90865e-14
1.98967e-05
2.05949e-05
-1.49849e-15
4.53785e-06
1.08969e-14
5.23599e-06
-6.5995e-15
5.93412e-06
7.26544e-15
6.63225e-06
6.17439e-15
7.33038e-06
2.48867e-15
8.02851e-06
-9.65384e-16
8.72664e-06
-4.36479e-15
9.42478e-06
-8.90108e-15
1.01229e-05
1.38631e-14
1.0821e-05
1.06906e-14
1.15192e-05
6.24853e-15
1.22173e-05
-1.28752e-16
1.29154e-05
-3.43768e-15
1.36136e-05
-1.10441e-14
1.43117e-05
-1.77644e-14
1.50098e-05
1.76809e-14
1.5708e-05
9.95467e-15
1.64061e-05
3.32895e-15
1.71042e-05
-3.29725e-14
1.78024e-05
-1.04221e-14
1.85005e-05
3.00645e-14
1.91986e-05
-5.99945e-14
1.98967e-05
2.05949e-05
5.17014e-15
4.53785e-06
-7.45565e-15
5.23599e-06
-7.56516e-16
5.93412e-06
6.8395e-15
6.63225e-06
-9.97455e-15
7.33038e-06
-1.66519e-15
8.02851e-06
9.21817e-15
8.72664e-06
-1.34589e-14
9.42478e-06
2.32226e-14
1.01229e-05
1.04721e-14
1.0821e-05
-1.72728e-14
1.15192e-05
-3.02606e-15
1.22173e-05
1.13965e-14
1.29154e-05
-1.98177e-14
1.36136e-05
-4.67948e-15
1.43117e-05
5.03072e-14
1.50098e-05
-2.40475e-14
1.5708e-05
-6.66077e-15
1.64061e-05
1.42631e-14
1.71042e-05
1.6469e-15
1.78024e-05
-6.81133e-15
1.85005e-05
1.44415e-14
1.91986e-05
5.07597e-14
1.98967e-05
2.05949e-05
-6.1973e-15
4.53785e-06
2.87189e-17
5.23599e-06
1.15116e-14
5.93412e-06
-2.06258e-14
6.63225e-06
5.36692e-15
7.33038e-06
1.22156e-15
8.02851e-06
-4.78611e-17
8.72664e-06
1.23936e-14
9.42478e-06
-1.32261e-14
1.01229e-05
-1.88952e-14
1.0821e-05
-4.96451e-15
1.15192e-05
-7.1524e-15
1.22173e-05
-1.48873e-14
1.29154e-05
3.53376e-14
1.36136e-05
-1.95631e-18
1.43117e-05
-4.31364e-14
1.50098e-05
1.35601e-14
1.5708e-05
-2.82568e-14
1.64061e-05
2.45924e-15
1.71042e-05
-1.02417e-14
1.78024e-05
2.38018e-14
1.85005e-05
1.38708e-14
1.91986e-05
-4.55616e-14
1.98967e-05
2.05949e-05
-1.90694e-15
4.53785e-06
1.13071e-15
5.23599e-06
-2.16623e-14
5.93412e-06
9.62399e-15
6.63225e-06
1.51376e-14
7.33038e-06
-1.40651e-14
8.02851e-06
8.09244e-15
8.72664e-06
-2.69601e-14
9.42478e-06
-1.96652e-15
1.01229e-05
2.97154e-14
1.0821e-05
-1.17465e-14
1.15192e-05
1.98679e-14
1.22173e-05
-2.74452e-14
1.29154e-05
-2.06142e-14
1.36136e-05
1.60396e-14
1.43117e-05
-4.61345e-15
1.50098e-05
4.69334e-15
1.5708e-05
4.79664e-14
1.64061e-05
-1.37396e-14
1.71042e-05
3.23697e-14
1.78024e-05
-3.51875e-14
1.85005e-05
-2.49088e-14
1.91986e-05
7.1912e-14
1.98967e-05
2.05949e-05
1.90628e-15
4.53785e-06
-1.13084e-15
5.23599e-06
2.16617e-14
5.93412e-06
-9.62386e-15
6.63225e-06
-1.51366e-14
7.33038e-06
1.4065e-14
8.02851e-06
-8.09456e-15
8.72664e-06
2.69595e-14
9.42478e-06
1.96469e-15
1.01229e-05
-2.97174e-14
1.0821e-05
1.17443e-14
1.15192e-05
-1.98661e-14
1.22173e-05
2.74446e-14
1.29154e-05
2.06172e-14
1.36136e-05
-1.60433e-14
1.43117e-05
4.61319e-15
1.50098e-05
-4.69244e-15
1.5708e-05
-4.79711e-14
1.64061e-05
1.37414e-14
1.71042e-05
-3.23782e-14
1.78024e-05
3.51837e-14
1.85005e-05
2.4901e-14
1.91986e-05
-7.19171e-14
1.98967e-05
2.05949e-05
6.19708e-15
4.53785e-06
-2.88799e-17
5.23599e-06
-1.15121e-14
5.93412e-06
2.06259e-14
6.63225e-06
-5.36751e-15
7.33038e-06
-1.22154e-15
8.02851e-06
4.67087e-17
8.72664e-06
-1.23949e-14
9.42478e-06
1.32253e-14
1.01229e-05
1.88949e-14
1.0821e-05
4.96443e-15
1.15192e-05
7.15419e-15
1.22173e-05
1.48885e-14
1.29154e-05
-3.53396e-14
1.36136e-05
1.59798e-18
1.43117e-05
4.31343e-14
1.50098e-05
-1.3565e-14
1.5708e-05
2.82545e-14
1.64061e-05
-2.45229e-15
1.71042e-05
1.02394e-14
1.78024e-05
-2.38053e-14
1.85005e-05
-1.3874e-14
1.91986e-05
4.55652e-14
1.98967e-05
2.05949e-05
-5.17009e-15
4.53785e-06
7.45551e-15
5.23599e-06
7.5634e-16
5.93412e-06
-6.83971e-15
6.63225e-06
9.97423e-15
7.33038e-06
1.66425e-15
8.02851e-06
-9.21927e-15
8.72664e-06
1.34589e-14
9.42478e-06
-2.32223e-14
1.01229e-05
-1.04723e-14
1.0821e-05
1.72724e-14
1.15192e-05
3.02536e-15
1.22173e-05
-1.13966e-14
1.29154e-05
1.98155e-14
1.36136e-05
4.67861e-15
1.43117e-05
-5.03083e-14
1.50098e-05
2.40442e-14