/*--------------------------------*- C++ -*----------------------------------*\
  =========                 |
  \\      /  F ield         | OpenFOAM: The Open Source CFD Toolbox
   \\    /   O peration     | Website:  https://openfoam.org
    \\  /    A nd           | Version:  11
     \\/     M anipulation  |
\*---------------------------------------------------------------------------*/
FoamFile
{
    format      ascii;
    class       volScalarField;
    location    "0.56";
    object      nut;
}
// * * * * * * * * * * * * * * * * * * * * * * * * * * * * * * * * * * * * * //

dimensions      [0 2 -1 0 0 0 0];

internalField   nonuniform List<scalar> 
2880
(
7.54536e-07
2.76926e-06
1.25391e-05
3.89912e-05
9.46963e-05
0.000198504
2.82799e-05
4.36394e-05
8.00429e-05
0.00012921
0.000181328
0.000251706
0.000163141
9.41878e-05
0.000151537
0.000218471
0.000293066
0.000430453
0.000180215
0.000137904
0.000212948
0.000298023
0.000405801
0.000585911
0.000191966
0.000175769
0.000266635
0.000370704
0.000505049
0.000703695
0.000200644
0.000208725
0.000313574
0.00043508
0.000586348
0.000785542
4.85173e-05
0.000236278
0.000353803
0.000488515
0.00064945
0.000839253
4.96391e-05
0.000258187
0.000387179
0.000530675
0.000694302
0.000869844
5.05367e-05
0.000274861
0.000413588
0.000562031
0.000722467
0.000880122
5.11255e-05
0.000286377
0.000433045
0.000582528
0.00073562
0.000873046
5.14025e-05
0.000292896
0.000445461
0.000593111
0.00073561
0.000850996
5.13857e-05
0.000294581
0.000451066
0.000594577
0.000724082
0.000816174
5.10714e-05
0.000291532
0.000450104
0.000587723
0.000702497
0.000770595
5.04852e-05
0.000283706
0.000442889
0.00057327
0.000672
0.000715952
4.97196e-05
0.000270835
0.000429818
0.000551836
0.000633835
0.000653557
4.87591e-05
0.000254238
0.000411387
0.00052417
0.000589504
0.000585315
4.75991e-05
0.000236658
0.000388404
0.000491178
0.000541049
0.000515565
0.000199566
0.000225632
0.00036157
0.000453644
0.0004911
0.000450738
0.000194091
0.000212238
0.000330563
0.000411571
0.000440674
0.000394368
0.000185267
0.000193651
0.000293327
0.000363393
0.000388865
0.000346179
0.000172949
0.000164951
0.000245436
0.000304875
0.000331373
0.000302646
0.000157017
0.000120096
0.000180409
0.000228332
0.000258069
0.00025521
2.74499e-05
5.56056e-05
9.30251e-05
0.000127934
0.000153791
0.000191309
7.80116e-07
3.01321e-06
8.09756e-06
1.65371e-05
2.78199e-05
7.90063e-05
0.000791869
0.00123491
0.00131382
0.0012657
0.00116595
0.00107034
0.00099843
0.000949396
0.000914161
0.000887779
0.000840826
0.000821327
0.000829853
0.000868869
0.000932977
0.00101308
0.00109848
0.00118099
0.00125805
0.00133086
0.00140451
0.00148119
0.00156751
0.00169473
0.000835129
0.00120728
0.0012832
0.00123938
0.00115477
0.00107639
0.00101659
0.000973245
0.000941741
0.000890046
0.000844156
0.000833033
0.000857078
0.000915744
0.000998954
0.00109403
0.00119132
0.00128715
0.00138154
0.00147655
0.00157718
0.00169963
0.00186884
0.00206096
0.000903277
0.00119243
0.00126462
0.00122799
0.00115733
0.0010907
0.00103536
0.000994022
0.000945512
0.000884788
0.000858399
0.000867579
0.000922324
0.00101342
0.00112553
0.00124699
0.00137055
0.00149405
0.00162029
0.00175521
0.00190769
0.00208992
0.00231223
0.00253747
0.000963281
0.00119707
0.00125279
0.00121951
0.00115702
0.00109578
0.00103827
0.000994172
0.000933214
0.000890908
0.000885979
0.000933555
0.00102759
0.0011483
0.00128084
0.00141928
0.00156315
0.00171794
0.00189288
0.00209983
0.00235193
0.00265656
0.00298831
0.00324594
0.00101025
0.00119936
0.00123794
0.0012022
0.00114247
0.00108261
0.00102499
0.00097972
0.000918249
0.000904507
0.000945738
0.00103918
0.0011643
0.001303
0.0014483
0.00160083
0.00176694
0.00195799
0.00218909
0.00247689
0.002833
0.00325023
0.0036568
0.00395288
0.00104187
0.00119049
0.00121163
0.00116986
0.00110963
0.00104498
0.00100968
0.000941578
0.000920162
0.000955817
0.0010475
0.00117428
0.00131695
0.00146745
0.00162726
0.00180373
0.00200847
0.00225699
0.00256664
0.0029503
0.00340509
0.00388662
0.00431856
0.00461469
0.00105351
0.0011671
0.00116937
0.00112042
0.0010521
0.00101989
0.000963176
0.000928725
0.000960063
0.00104861
0.00117517
0.00131984
0.00147364
0.00163713
0.00181712
0.00202554
0.00227936
0.00259865
0.00300051
0.00348783
0.00403594
0.00456262
0.00502645
0.00531006
0.00104686
0.00112726
0.00111056
0.0010583
0.00100582
0.000975041
0.000936298
0.000961548
0.00104541
0.00117099
0.00131659
0.00147147
0.00163521
0.0018139
0.00201861
0.00226562
0.00257592
0.00297108
0.00346333
0.00404268
0.0046466
0.00522367
0.00569755
0.00597571
0.00102291
0.00107117
0.00103939
0.000983985
0.000968452
0.000929827
0.000949855
0.00103065
0.00115648
0.00130341
0.00145889
0.00162172
0.00179737
0.00199582
0.00223166
0.00252454
0.00289749
0.00336963
0.00394329
0.00459153
0.00522921
0.0058281
0.00629066
0.0065592
0.000983227
0.00100172
0.00096576
0.000940645
0.000918017
0.000921905
0.00100329
0.00113156
0.00128169
0.00143905
0.00160127
0.00177329
0.00196423
0.00218677
0.00245787
0.00279918
0.00323359
0.00377503
0.00441458
0.00510065
0.00576433
0.00635726
0.00679965
0.00705544
0.000930399
0.000924081
0.000890679
0.000887423
0.000885562
0.000964359
0.0010939
0.00124835
0.00140946
0.00157235
0.00174104
0.00192429
0.00213359
0.00238323
0.00269138
0.00307989
0.00356902
0.00416548
0.00484914
0.00555253
0.00622001
0.00679279
0.00721356
0.00744855
0.000868124
0.000846701
0.00084614
0.000844661
0.000900294
0.00103596
0.00119991
0.00136984
0.00153708
0.00170449
0.00188091
0.00207773
0.00230777
0.00258582
0.00292972
0.00335954
0.00389102
0.00452317
0.00522692
0.00592801
0.00657848
0.00711997
0.00751786
0.0077258
0.000800642
0.000777541
0.000800893
0.000822525
0.000961213
0.00113493
0.00131713
0.001493
0.00166271
0.00183465
0.00202055
0.00223306
0.00248517
0.00279093
0.00316628
0.00362767
0.0041852
0.00483101
0.00553046
0.00621064
0.00682562
0.00732638
0.00769383
0.00787956
0.00072931
0.000725049
0.000759604
0.000845049
0.00103904
0.00124044
0.00143403
0.00161358
0.00178619
0.00196429
0.00216153
0.00239105
0.0026651
0.00299573
0.00339543
0.00387557
0.00444015
0.00507614
0.00574704
0.00638807
0.00695041
0.00740155
0.00773165
0.00789619
0.000650177
0.000690568
0.000735816
0.000906161
0.00113502
0.00135589
0.00155394
0.00173404
0.00190917
0.00209442
0.00230427
0.00255123
0.00284572
0.00319663
0.00361175
0.00409633
0.00464831
0.00525121
0.00586982
0.00645252
0.00694545
0.00733678
0.00761981
0.00776085
0.000558211
0.000666678
0.000742767
0.000971676
0.0012445
0.00147331
0.00167224
0.00185294
0.00203198
0.00222602
0.00244946
0.00271341
0.00302562
0.00339099
0.00381179
0.00428665
0.00480768
0.00535615
0.00590035
0.00639992
0.00681016
0.00712088
0.00734328
0.007454
0.000458038
0.000650758
0.00076854
0.00105806
0.00135873
0.00159243
0.00179113
0.00197256
0.00215637
0.00236015
0.00259744
0.00287712
0.00320356
0.00357714
0.00399436
0.00444733
0.00492255
0.00539933
0.00584942
0.0062404
0.00654461
0.00674601
0.0068742
0.00693676
0.000376999
0.000642819
0.000821482
0.00116609
0.00147972
0.0017146
0.00191149
0.00209369
0.00228313
0.00249748
0.00274858
0.00304231
0.00337923
0.00375513
0.00416111
0.00458344
0.00500342
0.00539778
0.00573955
0.0060006
0.00615806
0.00620628
0.00617194
0.00612789
0.000322581
0.000651834
0.000894638
0.00129469
0.00161017
0.00183989
0.00203365
0.00221692
0.00241292
0.00263855
0.00290317
0.00320914
0.00355305
0.00392644
0.00431596
0.00470321
0.00506529
0.0053759
0.00560663
0.00572814
0.00571275
0.00554289
0.00523233
0.00486621
0.000305426
0.000677376
0.000988627
0.00143382
0.00174068
0.00196728
0.00215814
0.00234301
0.00254644
0.00278388
0.00306151
0.00337791
0.00372587
0.00409343
0.00446393
0.00481608
0.0051246
0.00536162
0.00549808
0.00550338
0.00534186
0.00496311
0.00427447
0.00314444
0.000316041
0.000716189
0.0011138
0.00157782
0.00187691
0.00209919
0.00228574
0.00247229
0.00268388
0.00293342
0.0032233
0.00354829
0.00389792
0.0042576
0.00460872
0.00492884
0.00519261
0.00537361
0.00544625
0.00538683
0.00517239
0.00477613
0.00415802
0.00326994
0.000338792
0.00077433
0.00128698
0.0017448
0.00202768
0.00223648
0.00241624
0.00260467
0.00282511
0.00308667
0.0033875
0.00371887
0.00406772
0.00441773
0.00474935
0.00504017
0.00526607
0.0054032
0.00543011
0.00532905
0.00508583
0.00468719
0.00411468
0.00335192
0.000366808
0.000879159
0.00147763
0.00191343
0.0021829
0.00237603
0.00254848
0.00273958
0.00296945
0.00324234
0.00355212
0.00388695
0.00423194
0.00456972
0.00488051
0.00514254
0.00533351
0.00543279
0.00542355
0.00529403
0.00503706
0.00464794
0.00412164
0.00346115
0.000403868
0.00101708
0.00169551
0.00210183
0.002345
0.00251647
0.00268112
0.00287602
0.00311562
0.00339851
0.00371441
0.0040491
0.0043864
0.00470847
0.00499569
0.00522734
0.00538328
0.00544631
0.00540433
0.00525122
0.00498601
0.00461077
0.004129
0.00354812
1.04261e-06
1.14361e-05
4.2932e-05
0.000103217
0.000198876
6.08908e-05
3.16585e-05
0.000112179
0.000230178
0.000383089
0.000531733
0.000568841
0.000201841
0.000233372
0.000444191
0.000688389
0.000934461
0.00112912
5.20488e-05
0.000332881
0.000633544
0.000950968
0.00127218
0.00157475
5.59754e-05
0.000409455
0.000789947
0.00116518
0.00153653
0.0018884
5.92385e-05
0.000468134
0.000914617
0.00133448
0.00173933
0.00210963
6.17705e-05
0.000514553
0.00101037
0.00146569
0.00189033
0.00226478
6.36228e-05
0.000551652
0.00108145
0.00156283
0.00199881
0.00237065
6.4875e-05
0.000581081
0.00113149
0.00162961
0.00207169
0.00243834
6.56036e-05
0.000603319
0.00116274
0.00166902
0.00211421
0.00247573
6.58783e-05
0.000617997
0.001176
0.00168352
0.00213017
0.00248678
6.57653e-05
0.000624096
0.00117122
0.00167493
0.00212103
0.00247478
6.53369e-05
0.000620168
0.00114831
0.0016442
0.00208768
0.00244146
6.4589e-05
0.000605566
0.00110709
0.00159034
0.00203085
0.00238727
6.34411e-05
0.000580759
0.00104715
0.00151278
0.00194827
0.0023108
6.18552e-05
0.000545995
0.000970973
0.00141447
0.00184309
0.00220977
5.97985e-05
0.000501268
0.000878011
0.00129327
0.00171259
0.00208436
5.72306e-05
0.000446865
0.000769457
0.00114951
0.00155365
0.00192745
5.41173e-05
0.000383259
0.000647359
0.000984467
0.00136323
0.00173185
5.06921e-05
0.000311167
0.000514849
0.000801031
0.00113859
0.00148812
4.70528e-05
0.000232203
0.00037634
0.000603254
0.000880667
0.00118521
0.000180982
0.00014824
0.000237706
0.000400109
0.000599555
0.000815465
3.2011e-05
6.13515e-05
0.000106958
0.000206693
0.000325624
0.000408661
9.05181e-07
4.47673e-06
2.04329e-05
6.42288e-05
0.000127833
0.000204339
0.000506654
0.00133965
0.00200073
0.002319
0.00250798
0.00265344
0.00281204
0.00301257
0.00326191
0.00355274
0.00387136
0.0042018
0.00452719
0.00482954
0.00508971
0.00528823
0.00540733
0.00543341
0.005359
0.00518331
0.00491079
0.00454896
0.00410754
0.00359648
0.00120219
0.00189967
0.00229597
0.0025161
0.002655
0.00278148
0.00293923
0.00314754
0.0034062
0.00370241
0.00402
0.00434202
0.00465132
0.00493003
0.00515963
0.00532211
0.0054022
0.00539004
0.0052829
0.00508524
0.00480664
0.0044592
0.00405697
0.00361108
0.00171756
0.00223892
0.00251477
0.00267212
0.00278081
0.00289971
0.00306177
0.00327938
0.00354634
0.00384499
0.00415781
0.00446752
0.00475696
0.00500854
0.00520447
0.00532831
0.00536748
0.00531606
0.00517627
0.00495793
0.0046754
0.00434452
0.00398204
0.00360003
0.00207322
0.00246652
0.00267895
0.00279753
0.00289024
0.00300988
0.00317967
0.00340725
0.00368047
0.00397839
0.00428298
0.00457697
0.00484337
0.00506494
0.00522468
0.00530778
0.00530459
0.00521346
0.00504196
0.00480539
0.0045226
0.00421204
0.00389163
0.00357314
0.00232033
0.00263886
0.00280606
0.0029003
0.00298699
0.003113
0.00329264
0.00352998
0.00380691
0.00410107
0.00439442
0.00466991
0.00491078
0.0051001
0.00522168
0.00526251
0.00521621
0.00508593
0.00488512
0.00463469
0.00435722
0.00407223
0.00379653
0.00353947
0.00249495
0.00276762
0.00290411
0.00298511
0.00307343
0.00320921
0.00340001
0.00364628
0.00392429
0.00421204
0.00449173
0.00474661
0.0049601
0.00511555
0.00519758
0.00519524
0.00510597
0.00493855
0.00471285
0.00445509
0.00419008
0.00393609
0.00370625
0.00350549
0.00261949
0.00286066
0.00297875
0.00305529
0.00315102
0.0032985
0.00350098
0.00375483
0.00403162
0.00431088
0.00457514
0.00480794
0.0049928
0.00511325
0.00515488
0.00510921
0.00497835
0.00477763
0.00453364
0.00427679
0.00403167
0.00381262
0.00362705
0.00347483
0.00270697
0.0029253
0.00303448
0.00311333
0.00322054
0.0033808
0.00359487
0.00385439
0.00412836
0.00439768
0.00464536
0.00485517
0.00501063
0.00509545
0.00509638
0.00500813
0.00483855
0.00461037
0.00435648
0.00410928
0.00389013
0.00370723
0.00356162
0.00344898
0.00276412
0.00296844
0.00307485
0.00316094
0.00328233
0.00345565
0.00368089
0.00394437
0.00421446
0.00447294
0.00470342
0.00488982
0.00501555
0.00506452
0.00502509
0.0048961
0.00469232
0.00444428
0.00418969
0.00395984
0.0037701
0.0036216
0.00350993
0.00342814
0.00279571
0.00299343
0.00310219
0.0031992
0.00333634
0.00352243
0.00375817
0.00402469
0.00429023
0.00453747
0.0047506
0.00491357
0.00500958
0.00502292
0.0049442
0.00477755
0.00454564
0.0042864
0.00403976
0.00383264
0.00367271
0.0035547
0.00347045
0.00341195
0.00280567
0.00300268
0.00311798
0.00322868
0.00338199
0.00358033
0.00382601
0.00409528
0.00435616
0.00459226
0.00478829
0.00492813
0.00499475
0.00497317
0.00485707
0.00465707
0.00440429
0.00414253
0.00391073
0.00372876
0.00359654
0.00350403
0.00344115
0.00339978
0.00279678
0.00299786
0.00312314
0.00324978
0.00341782
0.00362833
0.00388382
0.00415629
0.00441295
0.00463844
0.00481793
0.00493519
0.00497309
0.00491781
0.00476713
0.00453917
0.00427328
0.00401665
0.00380405
0.00364698
0.0035388
0.00346667
0.00341993
0.00339098
0.00277066
0.00297998
0.00311809
0.00326236
0.00344231
0.00366542
0.00393119
0.00420804
0.00446142
0.00467717
0.00484095
0.00493642
0.00494657
0.00485939
0.00467778
0.00442799
0.00415641
0.00391072
0.00371905
0.00358473
0.00349634
0.00343993
0.00340481
0.00338489
0.0027281
0.0029496
0.00310288
0.00326498
0.00345533
0.00369121
0.00396806
0.00425105
0.00450251
0.00470967
0.00485875
0.00493343
0.00491714
0.00480047
0.0045923
0.00432699
0.00405607
0.00382488
0.00365373
0.00353894
0.00346621
0.00342101
0.00339466
0.00338088
0.00266925
0.00290693
0.00307746
0.00325555
0.0034558
0.00370533
0.00399468
0.00428604
0.00453722
0.00473712
0.00487267
0.00492775
0.00488673
0.00474355
0.00451365
0.00423879
0.00397331
0.003758
0.00360538
0.00350652
0.00344566
0.00340843
0.00338854
0.0033785
0.00259351
0.00285191
0.00304212
0.00322975
0.00344229
0.00370757
0.00401154
0.00431389
0.0045666
0.00476067
0.00488395
0.00492084
0.0048572
0.00469099
0.00444435
0.00416513
0.00390811
0.00370827
0.0035713
0.00348473
0.0034325
0.00340142
0.00338512
0.00337718
0.00250005
0.00278425
0.00299396
0.00318788
0.00341452
0.0036983
0.00401959
0.00433565
0.0045917
0.00478135
0.00489368
0.00491401
0.00483024
0.00464485
0.00438632
0.00410687
0.00385971
0.00367374
0.00354924
0.00347171
0.00342512
0.00339779
0.00338365
0.00337669
0.0023882
0.00270394
0.00292857
0.00312904
0.00337258
0.00367846
0.00402021
0.00435251
0.00461353
0.00480007
0.00490281
0.00490838
0.00480732
0.00460682
0.00434086
0.00406411
0.00382688
0.00365246
0.00353724
0.00346576
0.0034232
0.00339771
0.00338398
0.00337682
0.00225573
0.00261094
0.00283927
0.00305178
0.00331705
0.00364965
0.00401532
0.00436583
0.00463309
0.00481763
0.00491207
0.00490489
0.00478966
0.00457817
0.00430867
0.00403648
0.00380817
0.00364275
0.00353377
0.0034659
0.00342469
0.00340006
0.00338566
0.00337741
0.00209901
0.00249946
0.00272835
0.00295704
0.00324986
0.00361444
0.00400754
0.00437704
0.00465133
0.00483464
0.00492205
0.00490429
0.00477823
0.00455979
0.00429003
0.00402348
0.00380297
0.0036433
0.00353782
0.00347123
0.00342988
0.00340425
0.00338831
0.00337832
0.00191513
0.0023609
0.00259403
0.00284672
0.00317442
0.00357664
0.00399998
0.00438831
0.00466918
0.0048516
0.00493315
0.00490712
0.00477372
0.00455223
0.00428501
0.00402428
0.0038094
0.00365333
0.00354879
0.00348143
0.00343835
0.00341045
0.00339202
0.00337959
0.00169613
0.00218818
0.00243822
0.00272435
0.00309634
0.00354161
0.00399681
0.00440126
0.00468742
0.00486882
0.00494559
0.0049137
0.00477653
0.00455549
0.00429294
0.00403829
0.0038275
0.00367243
0.00356649
0.00349646
0.00345015
0.00341881
0.00339696
0.00338137
0.001409
0.00198946
0.0022681
0.00259864
0.00302479
0.00351639
0.00400255
0.0044176
0.0047066
0.00488642
0.00495944
0.00492415
0.00478668
0.0045699
0.00431398
0.0040652
0.00385688
0.00370059
0.00359111
0.00351659
0.00346558
0.0034296
0.00340338
0.00338382
0.00108401
0.00178813
0.00209724
0.00248715
0.00297295
0.00350893
0.00402103
0.00443857
0.00472683
0.00490403
0.00497405
0.00493819
0.0048042
0.00459461
0.00434731
0.00410457
0.0038975
0.00373815
0.00362318
0.00354241
0.00348518
0.00344329
0.00341164
0.0033872
8.87013e-07
2.90521e-06
1.09385e-05
4.20966e-05
0.000105455
4.66854e-05
3.01228e-05
5.03925e-05
7.7244e-05
0.000130273
0.000174081
0.000158787
0.000170851
0.00010231
0.000143078
0.00021803
0.000269445
0.000320546
0.000186322
0.000145232
0.000202768
0.000291333
0.000361526
0.0005015
4.72213e-05
0.000183062
0.000260491
0.000346301
0.000448894
0.000662274
5.02879e-05
0.000218892
0.000312426
0.000395192
0.000532963
0.000790503
5.30057e-05
0.000253103
0.000354404
0.000445103
0.000611763
0.000886476
5.53335e-05
0.000283247
0.000391538
0.000497311
0.000684306
0.000960265
5.71395e-05
0.000309266
0.000426426
0.000549089
0.000750365
0.00102163
5.84227e-05
0.000331203
0.000460394
0.000599746
0.000810649
0.00107554
5.9212e-05
0.000348923
0.00049366
0.000648628
0.000858725
0.00111043
5.95388e-05
0.000362278
0.000524926
0.000692696
0.00090373
0.00114846
5.94714e-05
0.000370819
0.000554032
0.000734045
0.000944038
0.00117207
5.90617e-05
0.000373705
0.000576983
0.000765298
0.000973875
0.00118716
5.85728e-05
0.000369768
0.000591768
0.000785107
0.000992931
0.00119344
5.79273e-05
0.000359802
0.000597338
0.000793626
0.000997694
0.00119037
5.69866e-05
0.000343663
0.000592266
0.000790322
0.000986083
0.00117556
5.5605e-05
0.000322411
0.000574068
0.000775014
0.000958099
0.00114281
5.36104e-05
0.000296261
0.000541689
0.000742847
0.000914602
0.00108296
5.08761e-05
0.000264875
0.000492247
0.000683846
0.000850684
0.00100156
0.000200918
0.000225205
0.000420375
0.000593449
0.000753203
0.000900555
0.000180951
0.0001684
0.000317052
0.000462335
0.00060326
0.00073904
3.22077e-05
8.64515e-05
0.000175895
0.000274201
0.000384384
0.000448035
9.26861e-07
7.15117e-06
2.78568e-05
6.34348e-05
0.000117096
0.000197194
0.000887829
0.00159913
0.00196547
0.002417
0.0029545
0.00352522
0.00405363
0.004464
0.00474744
0.00492054
0.00498867
0.00495524
0.00482823
0.00462912
0.00439233
0.00415606
0.00394949
0.00378563
0.00366344
0.00357467
0.00350965
0.00346048
0.00342219
0.00339182
0.000885561
0.00151003
0.00191459
0.00239945
0.00297388
0.00356565
0.00409684
0.0044915
0.00476646
0.00493423
0.00500284
0.00497454
0.00485796
0.00467244
0.00444822
0.00421933
0.00401313
0.0038438
0.00371291
0.00361446
0.00353999
0.00348197
0.00343538
0.00339776
0.000973923
0.0014874
0.00190756
0.00242499
0.00302603
0.00362678
0.00413889
0.0045167
0.00478065
0.0049448
0.00501493
0.00499478
0.00489206
0.00472322
0.00451394
0.00429394
0.00408875
0.00391363
0.0037729
0.00366314
0.00357735
0.00350853
0.00345166
0.0034051
0.001051
0.00149373
0.00193212
0.00248232
0.0031006
0.00369668
0.00417806
0.00453667
0.0047888
0.00494921
0.00502309
0.00501414
0.00492861
0.00477957
0.00458795
0.0043791
0.00417643
0.00399603
0.00384484
0.00372223
0.00362303
0.00354113
0.00347211
0.00341447
0.00111654
0.00151808
0.0019815
0.00256159
0.00318751
0.00375899
0.00420858
0.00454533
0.00478716
0.00494498
0.00502501
0.00503027
0.00496506
0.00483888
0.00466794
0.00447316
0.0042755
0.00409133
0.00392985
0.00379327
0.00367865
0.00358125
0.00349765
0.00342629
0.00117278
0.00155772
0.00205
0.00265216
0.00327308
0.00380701
0.00422535
0.00454147
0.00477236
0.00492936
0.005018
0.00504021
0.00499811
0.00489767
0.00475058
0.00457334
0.0043841
0.00419877
0.00402822
0.00387731
0.00374561
0.00363024
0.00352912
0.00344068
0.00122489
0.00161153
0.00213055
0.00274328
0.00334092
0.00383532
0.00422314
0.00451941
0.00474119
0.00489951
0.0049991
0.00504055
0.00502386
0.00495169
0.00483152
0.0046756
0.00449891
0.00431615
0.00413904
0.00397459
0.00382487
0.00368916
0.00356722
0.00345762
0.00127774
0.00167582
0.00221307
0.00282232
0.00338112
0.00383937
0.00419772
0.00447601
0.00469094
0.00485277
0.00496523
0.00502764
0.00503799
0.00499606
0.00490554
0.00477466
0.00461505
0.00443951
0.00425963
0.00408382
0.00391624
0.00375842
0.00361227
0.00347685
0.00133239
0.00174327
0.00228563
0.00286898
0.00339431
0.00381413
0.00414595
0.00440907
0.0046196
0.00478684
0.00491354
0.00499785
0.0050361
0.00502562
0.00496684
0.00486431
0.00472624
0.00456299
0.00438515
0.00420153
0.00401771
0.0038371
0.00366382
0.00349764
0.00138594
0.00179504
0.00232741
0.00289133
0.00337098
0.00375747
0.00406643
0.00431752
0.00452593
0.00469998
0.00484155
0.00494789
0.00501405
0.00503535
0.00500953
0.00493785
0.00482521
0.0046792
0.00450865
0.00432183
0.00412482
0.00392221
0.0037199
0.0035184
0.00142426
0.00184258
0.00235299
0.0028716
0.00331229
0.00366945
0.00395954
0.00420155
0.00440961
0.00459116
0.00474744
0.00487511
0.00496829
0.00502082
0.00502818
0.0049888
0.00490449
0.00477994
0.00462171
0.00443671
0.00423059
0.00400822
0.00377647
0.00353615
0.00145997
0.001862
0.00234052
0.00281509
0.00322028
0.0035524
0.00382721
0.00406245
0.00427116
0.0044601
0.00463016
0.00477768
0.00489621
0.00497851
0.00501828
0.00501155
0.00495727
0.00485728
0.00471556
0.00453705
0.00432619
0.00408726
0.00382701
0.00354601
0.00147609
0.00185562
0.0022951
0.00272646
0.0030996
0.00341033
0.00367255
0.00390238
0.00411188
0.00430733
0.00448951
0.00465471
0.00479625
0.00490615
0.00497673
0.00500196
0.00497826
0.00490468
0.00478248
0.00461422
0.00440253
0.00415031
0.00386314
0.00354098
0.00147411
0.00182357
0.00222116
0.00261205
0.00295621
0.00324815
0.00349933
0.00372414
0.00393371
0.00413408
0.00432613
0.00450635
0.00466808
0.00480288
0.00490206
0.00495787
0.00496443
0.0049181
0.00481735
0.00466207
0.00445252
0.00418946
0.00387626
0.00351254
0.00145685
0.00177078
0.00212578
0.00247904
0.00279648
0.00307108
0.00331171
0.00353096
0.00373918
0.00394231
0.00414153
0.00433374
0.00451253
0.00466932
0.00479468
0.00487944
0.00491566
0.00489711
0.00481935
0.00467923
0.00447406
0.00420145
0.00386087
0.00345228
0.00142769
0.001704
0.00201701
0.00233456
0.00262659
0.00288434
0.00311401
0.00332645
0.00353133
0.00373462
0.00393798
0.00413893
0.00433156
0.00450747
0.00465682
0.00476936
0.00483534
0.00484609
0.00479412
0.00467275
0.00447526
0.00419412
0.00382117
0.00335568
0.0013887
0.00162855
0.0019014
0.00218486
0.00245216
0.00269288
0.00291061
0.00311454
0.00331369
0.00351423
0.00371846
0.00392474
0.00412801
0.00432039
0.00449214
0.00463246
0.00473036
0.00477516
0.00475653
0.00466388
0.00448493
0.00420362
0.00379653
0.00324212
0.00134006
0.00154743
0.00178344
0.00203477
0.00227793
0.00250122
0.00270585
0.00289937
0.00309027
0.00328495
0.00348655
0.00369458
0.00390514
0.00411145
0.00430454
0.00447397
0.00460867
0.00469741
0.00472873
0.00469007
0.00456693
0.00434962
0.00406759
0.00388797
0.00128086
0.00146079
0.00166506
0.00188726
0.00210746
0.00231326
0.00250385
0.00268525
0.00286541
0.0030511
0.0032464
0.00345221
0.00366625
0.00388338
0.00409622
0.00429587
0.00447275
0.00461736
0.00472059
0.00477342
0.00476752
0.00470291
0.00461447
0.00457402
0.00119752
0.0013642
0.00154495
0.00174294
0.0019426
0.00213179
0.00230815
0.00247632
0.00264371
0.00281744
0.00300267
0.00320187
0.00341468
0.00363811
0.00386709
0.00409508
0.00431472
0.00451826
0.00469726
0.00484205
0.00494276
0.00499469
0.00502631
0.00506398
0.00106471
0.00125143
0.00141846
0.00159949
0.00178301
0.00195801
0.00212122
0.00227611
0.00242957
0.002589
0.00276062
0.00294855
0.00315452
0.00337806
0.00361693
0.00386762
0.00412548
0.00438413
0.00463379
0.00486038
0.00503996
0.00518226
0.00529096
0.00536243
0.000880647
0.00110767
0.00127661
0.00145153
0.00162579
0.00179098
0.00194381
0.00208694
0.00222669
0.00237063
0.0025259
0.00269816
0.00289127
0.00310738
0.00334737
0.00361127
0.0038978
0.00420239
0.00451403
0.00480997
0.00505337
0.00527518
0.00543389
0.00552858
0.000624532
0.000903311
0.00110753
0.00129206
0.00146623
0.00162773
0.00177467
0.00190927
0.00203731
0.00216628
0.00230395
0.00245728
0.00263202
0.00283277
0.00306351
0.00332801
0.00362904
0.00396519
0.00432581
0.00467523
0.00498245
0.00526624
0.00547196
0.00558695
0.000313553
0.000575216
0.000871878
0.00109556
0.00128991
0.00146
0.00160899
0.00174078
0.0018613
0.00197803
0.00209905
0.00223224
0.0023848
0.00256338
0.00277459
0.00302569
0.00332386
0.00367238
0.00406364
0.00445539
0.00481599
0.00515003
0.00540542
0.00554118
7.94433e-07
3.88654e-06
1.27988e-05
2.9624e-05
5.15662e-05
9.19736e-05
2.87789e-05
6.46955e-05
0.00011991
0.000180749
0.000241626
0.000304445
0.000164806
0.000141631
0.000239865
0.0003385
0.000428832
0.00048799
0.000180982
0.000199816
0.000336524
0.00046559
0.000577922
0.000645959
0.000191909
0.000240091
0.00041286
0.00056681
0.000698411
0.000782734
0.000199763
0.000265901
0.000473987
0.000649014
0.000796995
0.000900259
4.82333e-05
0.000287005
0.000523446
0.000715924
0.000878283
0.0009988
4.96012e-05
0.000310488
0.000564149
0.00077105
0.00094637
0.0010817
5.08663e-05
0.000333147
0.000597537
0.000816299
0.0010036
0.00115222
5.18709e-05
0.000353322
0.00062378
0.000852487
0.00105111
0.00121193
5.26116e-05
0.000369668
0.00064253
0.000879746
0.00108927
0.00126162
5.31087e-05
0.000380898
0.000653271
0.000897769
0.00111792
0.00130146
5.33978e-05
0.000385687
0.000655476
0.000905938
0.00113644
0.00133114
5.33932e-05
0.000383937
0.0006485
0.000903368
0.00114385
0.00134998
5.30621e-05
0.000375986
0.000631442
0.000888918
0.0011387
0.00135686
5.239e-05
0.000361245
0.000604098
0.000861213
0.00111904
0.00135016
5.13719e-05
0.000339261
0.000565579
0.000818624
0.00108218
0.00132761
5.0007e-05
0.000309602
0.0005154
0.00075936
0.00102454
0.00128697
4.82451e-05
0.00027192
0.000453296
0.000681652
0.00094267
0.00121846
0.000199687
0.000225971
0.000379337
0.000584485
0.000831005
0.00110928
0.000187272
0.000172375
0.000293998
0.000467707
0.000684541
0.000943917
0.000169438
0.000111814
0.000198371
0.000332702
0.00050322
0.000702459
2.927e-05
4.6928e-05
9.61845e-05
0.000185102
0.000300492
0.00036696
7.93582e-07
3.50226e-06
1.79763e-05
5.66727e-05
0.000119371
4.54434e-05
0.000316294
0.000444077
0.000684623
0.000908926
0.00111067
0.00128954
0.00144473
0.00157878
0.00169683
0.00180575
0.00191336
0.00202784
0.00215722
0.00230947
0.00249306
0.00271789
0.00299522
0.00333404
0.00373292
0.00415358
0.00455294
0.00492441
0.00523315
0.00539221
0.000369555
0.000449934
0.000557071
0.000747217
0.000937328
0.00111871
0.00128026
0.00142007
0.00154052
0.00164696
0.00174624
0.00184607
0.00195453
0.00208008
0.00223202
0.00242163
0.00266284
0.00297003
0.00334998
0.00378168
0.00419979
0.0045987
0.00494961
0.0051457
0.000491382
0.000551403
0.000577218
0.000661662
0.000804033
0.00096163
0.00111928
0.0012629
0.00138833
0.00149717
0.00159399
0.00168518
0.00177801
0.00188054
0.00200188
0.00215325
0.00234931
0.00260783
0.00294383
0.00335693
0.00377953
0.00419275
0.00456141
0.0048042
0.000659591
0.000644761
0.000690151
0.000711009
0.000770251
0.000864371
0.000984337
0.00111454
0.00123946
0.00135164
0.00145062
0.00153954
0.00162384
0.00171028
0.00180687
0.00192358
0.00207383
0.0022757
0.0025496
0.00290843
0.00331983
0.00372656
0.00409402
0.00438268
0.00082058
0.000792117
0.000809624
0.000839182
0.000849172
0.000881155
0.000935136
0.00101377
0.00111092
0.00121376
0.001312
0.00140169
0.00148384
0.00156231
0.00164303
0.00173388
0.00184569
0.00199396
0.00219941
0.00248288
0.00285121
0.00323501
0.00359506
0.00389397
0.000961753
0.000951593
0.000956425
0.00098
0.00099099
0.000991199
0.000999318
0.0010185
0.00105667
0.00111641
0.00119165
0.00127248
0.00135167
0.00142702
0.0015002
0.00157583
0.00166134
0.00176812
0.00191321
0.00211892
0.00240598
0.0027568
0.00309402
0.00338149
0.00108249
0.00110632
0.00111648
0.0011317
0.00114632
0.00114648
0.00113702
0.00112182
0.00111185
0.00111478
0.00113719
0.00118001
0.00123784
0.00130286
0.00136969
0.00143718
0.00150794
0.00158847
0.00169013
0.00183058
0.00203284
0.00231858
0.00263067
0.00288143
0.00118747
0.00124303
0.00127034
0.00129078
0.00130321
0.00130782
0.00130052
0.00127892
0.00124349
0.00121146
0.00118616
0.00117529
0.00118445
0.00121406
0.00125935
0.00131391
0.00137376
0.00143903
0.00151453
0.00161075
0.00174531
0.00194563
0.00221676
0.00243524
0.00127749
0.00135766
0.00140604
0.00143755
0.00145719
0.0014641
0.00145787
0.00144298
0.00141129
0.00136079
0.00131238
0.00126557
0.00122781
0.00120661
0.00120651
0.00122722
0.00126439
0.00131296
0.00137068
0.0014401
0.00152994
0.00165846
0.00186944
0.00205757
0.00135319
0.00145257
0.00151826
0.00156227
0.00159075
0.00160473
0.00160498
0.0015905
0.0015685
0.00152887
0.00146821
0.00140831
0.00134652
0.00128947
0.0012445
0.00121793
0.00121292
0.00122856
0.0012612
0.0013077
0.00136851
0.00144934
0.00159253
0.00175395
0.00141651
0.00153125
0.0016081
0.00166171
0.00169813
0.00171955
0.00172631
0.00171871
0.00169883
0.00167261
0.00162819
0.00156159
0.00149492
0.0014247
0.00135618
0.0012955
0.00124888
0.00122119
0.00121449
0.00122778
0.00125923
0.0013056
0.00138848
0.00152388
0.00146835
0.00159392
0.001678
0.00173687
0.0017785
0.00180574
0.00181941
0.00181984
0.00180731
0.00178258
0.00175214
0.00170582
0.00164119
0.00157276
0.00150034
0.00142775
0.00135942
0.00130075
0.00125669
0.00123078
0.00122485
0.00123678
0.00126949
0.00136826
0.00150911
0.00164218
0.0017297
0.00179025
0.00183403
0.0018649
0.00188411
0.00189195
0.00188854
0.00187408
0.00184872
0.00181541
0.0017668
0.00170993
0.00164945
0.00158038
0.00150918
0.00144075
0.00137809
0.00132511
0.00128609
0.00126259
0.00125473
0.00130884
0.00153876
0.00167702
0.00176447
0.00182385
0.00186698
0.00189932
0.00192271
0.00193746
0.00194333
0.00194
0.00192696
0.00190402
0.00187269
0.00182855
0.0017786
0.00173097
0.00167631
0.00161241
0.00154642