/*--------------------------------*- C++ -*----------------------------------*\
  =========                 |
  \\      /  F ield         | OpenFOAM: The Open Source CFD Toolbox
   \\    /   O peration     | Website:  https://openfoam.org
    \\  /    A nd           | Version:  11
     \\/     M anipulation  |
\*---------------------------------------------------------------------------*/
FoamFile
{
    format      ascii;
    class       volScalarField;
    location    "0.56";
    object      p;
}
// * * * * * * * * * * * * * * * * * * * * * * * * * * * * * * * * * * * * * //

dimensions      [0 2 -2 0 0 0 0];

internalField   nonuniform List<scalar> 
2880
(
-0.751811
-0.767158
-0.77627
-0.797974
-0.821093
-0.937252
-0.750196
-0.765566
-0.774107
-0.793725
-0.806693
-0.837957
-0.746408
-0.762851
-0.770135
-0.78672
-0.793168
-0.793162
-0.743085
-0.759872
-0.765549
-0.77837
-0.779268
-0.768215
-0.743492
-0.75725
-0.761144
-0.769953
-0.766006
-0.749728
-0.746584
-0.755067
-0.757183
-0.762161
-0.754613
-0.735713
-0.747716
-0.753073
-0.753603
-0.755243
-0.745325
-0.725459
-0.746857
-0.750998
-0.750374
-0.749329
-0.737995
-0.717884
-0.745778
-0.748795
-0.747445
-0.744399
-0.732549
-0.712564
-0.744766
-0.746457
-0.744764
-0.740579
-0.728721
-0.709179
-0.743811
-0.743969
-0.742374
-0.737809
-0.726267
-0.707465
-0.742793
-0.741351
-0.740359
-0.735827
-0.725037
-0.707215
-0.74163
-0.73864
-0.7387
-0.734502
-0.724831
-0.708382
-0.740265
-0.735858
-0.737322
-0.733788
-0.725424
-0.710778
-0.738621
-0.732992
-0.736126
-0.733699
-0.726564
-0.714145
-0.736865
-0.729783
-0.735156
-0.734256
-0.727962
-0.718134
-0.736712
-0.726583
-0.734475
-0.735456
-0.72952
-0.722917
-0.738724
-0.725103
-0.73421
-0.73731
-0.731624
-0.730458
-0.739803
-0.724816
-0.734238
-0.739783
-0.735076
-0.743447
-0.738904
-0.72458
-0.734266
-0.742688
-0.740591
-0.762255
-0.737245
-0.72378
-0.733809
-0.745635
-0.74781
-0.786028
-0.733323
-0.721747
-0.732313
-0.747573
-0.755406
-0.814555
-0.727861
-0.718726
-0.73008
-0.747371
-0.761952
-0.847794
-0.725235
-0.716625
-0.729101
-0.746791
-0.767686
-0.883379
-0.708073
-0.658286
-0.669835
-0.698444
-0.736053
-0.774938
-0.806403
-0.820628
-0.809402
-0.769059
-0.701307
-0.613568
-0.516953
-0.4227
-0.337648
-0.264404
-0.203866
-0.154944
-0.115892
-0.0848585
-0.0600695
-0.0398505
-0.0225785
-0.00736582
-0.723787
-0.676359
-0.678511
-0.705616
-0.743825
-0.783413
-0.814783
-0.82778
-0.814661
-0.772189
-0.703237
-0.616021
-0.521926
-0.431499
-0.350361
-0.280122
-0.222023
-0.174408
-0.135438
-0.103426
-0.0767854
-0.0540832
-0.0340695
-0.0145841
-0.714364
-0.679405
-0.679836
-0.705556
-0.7423
-0.78003
-0.808328
-0.817377
-0.799949
-0.754128
-0.684218
-0.599218
-0.510045
-0.425971
-0.350415
-0.285262
-0.230782
-0.185506
-0.147686
-0.115762
-0.0883243
-0.0642121
-0.0424275
-0.019649
-0.705103
-0.6764
-0.67624
-0.699462
-0.733041
-0.766532
-0.78936
-0.792168
-0.768626
-0.718962
-0.648763
-0.567365
-0.48449
-0.407821
-0.33981
-0.280657
-0.230145
-0.187786
-0.151907
-0.121031
-0.0939703
-0.0698448
-0.0476558
-0.0228168
-0.697953
-0.671568
-0.669614
-0.688929
-0.717611
-0.744833
-0.760421
-0.755017
-0.72464
-0.671455
-0.602167
-0.525839
-0.450413
-0.381018
-0.320369
-0.267382
-0.221459
-0.182184
-0.148409
-0.118919
-0.0927455
-0.0692627
-0.0474945
-0.0225608
-0.691644
-0.665959
-0.661034
-0.67512
-0.697259
-0.716935
-0.72354
-0.708953
-0.672011
-0.616293
-0.549255
-0.478904
-0.411178
-0.349417
-0.294926
-0.247319
-0.205928
-0.170069
-0.138818
-0.111213
-0.0864824
-0.0641307
-0.0430525
-0.0192211
-0.686466
-0.660132
-0.65117
-0.65889
-0.673386
-0.684408
-0.680601
-0.657141
-0.614483
-0.557614
-0.493835
-0.429549
-0.368909
-0.313905
-0.265129
-0.222385
-0.1851
-0.152577
-0.12403
-0.0986789
-0.0759128
-0.0551061
-0.0348678
-0.0131069
-0.682699
-0.654466
-0.640493
-0.640837
-0.647359
-0.648062
-0.6338
-0.602174
-0.55504
-0.498276
-0.438262
-0.37968
-0.325175
-0.275934
-0.232235
-0.193838
-0.160242
-0.130825
-0.104917
-0.0818655
-0.0611577
-0.0419233
-0.0225579
-0.0040319
-0.680344
-0.649146
-0.629208
-0.621965
-0.619362
-0.6089
-0.58488
-0.545877
-0.495617
-0.439907
-0.383694
-0.330131
-0.280856
-0.236512
-0.197165
-0.162561
-0.132261
-0.105711
-0.0823192
-0.0615418
-0.0428389
-0.0250555
-0.00646931
0.00790696
-0.679358
-0.6442
-0.61742
-0.602438
-0.589196
-0.568149
-0.534679
-0.489509
-0.437403
-0.383261
-0.330559
-0.281294
-0.236405
-0.196183
-0.160555
-0.129248
-0.101866
-0.0779177
-0.0568632
-0.0382395
-0.021477
-0.00504991
0.0129487
0.0225621
-0.679715
-0.639283
-0.605457
-0.58159
-0.557501
-0.525933
-0.483681
-0.43378
-0.38082
-0.328436
-0.278868
-0.233269
-0.192089
-0.155363
-0.122914
-0.0944565
-0.0696284
-0.04799
-0.0290467
-0.0123821
0.00257709
0.0177822
0.0353909
0.0398306
-0.681421
-0.634015
-0.593166
-0.559095
-0.524303
-0.481931
-0.432131
-0.378865
-0.325767
-0.275201
-0.228442
-0.186026
-0.148035
-0.114312
-0.0845983
-0.058601
-0.0359863
-0.0163567
0.000734252
0.0156484
0.0289654
0.0431094
0.0604819
0.0595585
-0.684278
-0.627594
-0.579518
-0.534911
-0.488294
-0.435709
-0.380015
-0.324611
-0.271902
-0.223201
-0.179039
-0.139474
-0.104304
-0.0732192
-0.0458972
-0.0220357
-0.00132541
0.0165913
0.0320993
0.0454859
0.057341
0.0705903
0.0878848
0.0816776
-0.687855
-0.61908
-0.563325
-0.507731
-0.448476
-0.387149
-0.327157
-0.270633
-0.218785
-0.172063
-0.130414
-0.0935169
-0.0609416
-0.0322545
-0.00707817
0.0149007
0.0339728
0.0504545
0.0646525
0.0767515
0.0873452
0.0998644
0.117261
0.106176
-0.690553
-0.608217
-0.543013
-0.475313
-0.404253
-0.336068
-0.273243
-0.216492
-0.165975
-0.121435
-0.0823416
-0.0480644
-0.0179888
0.0084207
0.0315919
0.051855
0.0694908
0.0847772
0.0979322
0.109005
0.118575
0.130537
0.148214
0.133049
-0.688907
-0.59623
-0.516296
-0.435888
-0.355306
-0.282182
-0.217837
-0.161716
-0.113061
-0.071006
-0.0346266
-0.0030432
0.0245071
0.0486428
0.069838
0.0884471
0.104754
0.11901
0.131354
0.141685
0.150525
0.162124
0.180264
0.162372
-0.680061
-0.584996
-0.48253
-0.388901
-0.301301
-0.225129
-0.16051
-0.105884
-0.0596816
-0.0205053
0.0129006
0.0416129
0.066507
0.0882636
0.107396
0.124288
0.139244
0.152509
0.164185
0.174068
0.18257
0.194063
0.212824
0.194591
-0.664594
-0.57217
-0.441715
-0.334105
-0.241653
-0.164358
-0.100806
-0.0486211
-0.00554294
0.0302855
0.0603847
0.0859748
0.108003
0.127184
0.144054
0.159022
0.172416
0.184508
0.195431
0.205028
0.213576
0.224947
0.243979
0.231577
-0.643805
-0.549427
-0.391703
-0.270788
-0.175692
-0.099333
-0.0383577
0.0103365
0.0495594
0.0815279
0.107953
0.13014
0.149057
0.165416
0.179742
0.192429
0.203799
0.214123
0.223603
0.232212
0.239848
0.248533
0.264098
0.275633
-0.616768
-0.505565
-0.328428
-0.197951
-0.102878
-0.0296657
0.0270615
0.0711222
0.10572
0.133309
0.155707
0.174235
0.189837
0.203177
0.214724
0.224811
0.233678
0.24151
0.248429
0.254363
0.258425
0.261721
0.274109
0.306557
-0.582369
-0.432003
-0.247045
-0.11431
-0.0227523
0.0448192
0.0954718
0.133682
0.162877
0.1856
0.203672
0.218366
0.230556
0.240837
0.249609
0.257147
0.263636
0.269222
0.273932
0.277321
0.27879
0.282183
0.300744
0.321374
-0.542866
-0.322563
-0.142093
-0.0184251
0.0648053
0.123856
0.166532
0.197688
0.220758
0.238204
0.251735
0.26251
0.271298
0.278599
0.284748
0.289965
0.294409
0.298211
0.301341
0.303251
0.303744
0.308403
0.330317
0.341327
-0.487906
-0.164611
-0.00855301
0.0905692
0.159157
0.206528
0.239431
0.262482
0.278851
0.290732
0.299618
0.306482
0.311949
0.316418
0.320142
0.323286
0.32597
0.328294
0.330173
0.330999
0.330786
0.335891
0.359024
0.364856
-0.312689
0.0550835
0.15026
0.210693
0.258364
0.291158
0.312873
0.327075
0.336425
0.342636
0.346892
0.349938
0.352232
0.354049
0.355559
0.356861
0.358027
0.359112
0.359975
0.359947
0.359137
0.364241
0.387588
0.390344
1.52185
1.56197
1.5948
1.62509
1.59874
1.47401
1.52183
1.55567
1.57742
1.59324
1.5219
1.36506
1.52177
1.54723
1.55641
1.55701
1.47392
1.30719
1.52146
1.54034
1.53872
1.5255
1.43961
1.28537
1.5208
1.53557
1.52531
1.50127
1.41645
1.27947
1.51967
1.5315
1.51471
1.48283
1.4008
1.28011
1.51786
1.52691
1.50556
1.46836
1.39002
1.28345
1.51534
1.52136
1.49714
1.4567
1.38251
1.28771
1.5122
1.51488
1.48927
1.44716
1.37716
1.29193
1.50863
1.50781
1.48204
1.43932
1.37324
1.29529
1.50482
1.50059
1.47566
1.43298
1.37033
1.29791
1.50095
1.49365
1.47031
1.42797
1.36818
1.29973
1.49718
1.48736
1.46611
1.42423
1.36664
1.30077
1.49363
1.48195
1.46304
1.42164
1.36565
1.30116
1.49038
1.47755
1.4611
1.4201
1.36524
1.30113
1.48746
1.47419
1.46018
1.41954
1.3656
1.30107
1.48489
1.47179
1.46006
1.41983
1.36693
1.30158
1.48266
1.4702
1.46041
1.42077
1.36941
1.30338
1.48084
1.46913
1.46078
1.42216
1.37328
1.30735
1.47968
1.46807
1.4606
1.42358
1.37875
1.31516
1.47992
1.46618
1.45908
1.42433
1.38614
1.33186
1.48028
1.46262
1.45549
1.42365
1.39589
1.3675
1.4785
1.45773
1.45042
1.42264
1.4081
1.43295
1.47719
1.4549
1.44969
1.42795
1.42134
1.52807
0.231742
0.285807
0.311169
0.334431
0.358475
0.375153
0.385059
0.390295
0.392611
0.393251
0.393033
0.392444
0.391759
0.391131
0.390635
0.3903
0.390138
0.390153
0.39014
0.389375
0.388005
0.392844
0.415751
0.416498
0.579773
0.477767
0.455866
0.451786
0.45432
0.455587
0.454201
0.450858
0.446507
0.441898
0.437494
0.433529
0.430108
0.427257
0.424961
0.423175
0.421847
0.420921
0.420134
0.418717
0.416848
0.421299
0.443332
0.442704
0.780297
0.640298
0.584042
0.557503
0.542351
0.530276
0.518827
0.507737
0.497338
0.487963
0.479763
0.472749
0.466868
0.462036
0.45815
0.455091
0.452745
0.450996
0.449526
0.447544
0.445257
0.449265
0.470099
0.468529
0.901691
0.765003
0.69167
0.649472
0.62084
0.597938
0.577967
0.560183
0.544508
0.53095
0.519409
0.509712
0.501674
0.495113
0.489847
0.485692
0.482469
0.480006
0.477942
0.475487
0.472874
0.476425
0.495818
0.493642
0.989989
0.861743
0.780413
0.727965
0.689401
0.658
0.631084
0.607726
0.5876
0.570487
0.556092
0.544098
0.534216
0.526185
0.519753
0.514672
0.51071
0.507641
0.505073
0.502237
0.499397
0.502496
0.52027
0.517761
1.05625
0.93689
0.852693
0.793845
0.74821
0.710354
0.677969
0.650123
0.626365
0.606326
0.589565
0.575664
0.564253
0.555007
0.547617
0.541781
0.537211
0.53364
0.530658
0.527535
0.52456
0.527219
0.543246
0.540624
1.10538
0.994839
0.910813
0.848284
0.797794
0.755199
0.718655
0.687315
0.660694
0.638325
0.619668
0.604235
0.591601
0.581389
0.573244
0.566813
0.561764
0.557792
0.55448
0.551158
0.548131
0.550356
0.564551
0.561986
1.14152
1.03915
0.956918
0.892535
0.838869
0.792932
0.753338
0.719378
0.690585
0.66643
0.646314
0.629703
0.616133
0.605192
0.596483
0.589611
0.584201
0.579919
0.576358
0.572916
0.569902
0.571696
0.584014
0.581623
1.16787
1.07268
0.992896
0.927828
0.872219
0.824042
0.782313
0.746474
0.716109
0.690654
0.669474
0.652008
0.63777
0.626319
0.617225
0.610051
0.604386
0.599879
0.596139
0.592641
0.589688
0.591055
0.601489
0.599346
1.1869
1.09762
1.02032
0.955273
0.898612
0.849044
0.805913
0.768814
0.737389
0.711056
0.689163
0.671135
0.656471
0.64471
0.635391
0.62804
0.622214
0.617553
0.613693
0.610193
0.607334
0.608279
0.616867
0.615009
1.19997
1.11551
1.04045
0.975824
0.91874
0.868431
0.824479
0.786623
0.754568
0.727723
0.705426
0.687096
0.672225
0.660334
0.650931
0.643509
0.637602
0.632846
0.628917
0.625456
0.622714
0.623256
0.630077
0.628507
1.20821
1.12748
1.05426
0.990273
0.933199
0.882642
0.838323
0.800123
0.767799
0.740758
0.71833
0.69993
0.685047
0.673183
0.663818
0.656414
0.650489
0.645688
0.641733
0.638342
0.635736
0.63592
0.641104
0.639752
1.21238
1.13434
1.06247
0.999249
0.942489
0.892051
0.847725
0.80952
0.777237
0.750276
0.727956
0.709693
0.694967
0.683266
0.674041
0.666727
0.660837
0.656035
0.652087
0.648788
0.646334
0.646232
0.64992
0.648566
1.2129
1.13664
1.06561
1.00322
0.947004
0.896961
0.852923
0.815001
0.783028
0.756393
0.734397
0.716452
0.702035
0.690614
0.681611
0.674444
0.66863
0.66386
0.659944
0.656742
0.654424
0.654052
0.656414
0.655093
1.20996
1.13466
1.06401
1.00249
0.947019
0.897601
0.854107
0.816728
0.785312
0.759228
0.737752
0.720292
0.706316
0.695272
0.68656
0.679588
0.673888
0.669181
0.665324
0.662224
0.660002
0.659336
0.660606
0.659622
1.2035
1.12851
1.05783
0.997228
0.942697
0.894121
0.851424
0.814842
0.784222
0.758904
0.738133
0.721308
0.707889
0.697308
0.688946
0.682213
0.676666
0.672063
0.6683
0.665321
0.663187
0.662259
0.662702
0.662151
1.19328
1.11807
1.04702
0.9875
0.934106
0.886617
0.844987
0.809471
0.77989
0.755549
0.735659
0.719609
0.706852
0.696805
0.688844
0.682392
0.677038
0.672581
0.668946
0.666102
0.664065
0.662964
0.662858
0.662617
1.17879
1.10303
1.0313
0.973218
0.921233
0.87514
0.834893
0.800737
0.772455
0.749305
0.730464
0.715318
0.703313
0.693863
0.686347
0.680213
0.675092
0.670814
0.667331
0.664628
0.662696
0.661552
0.661145
0.661057
1.15919
1.08281
1.01025
0.95415
0.903996
0.859717
0.821236
0.788778
0.762074
0.740331
0.722703
0.708577
0.697405
0.688603
0.681569
0.675789
0.670936
0.666873
0.663566
0.661005
0.659174
0.658062
0.657619
0.657605
1.13338
1.05635
0.983244
0.929971
0.882295
0.840389
0.804141
0.773765
0.748935
0.728814
0.712551
0.699551
0.689277
0.681166
0.674648
0.669253
0.6647
0.660879
0.657766
0.655345
0.653607
0.652607
0.652385
0.652335
1.09963
1.02184
0.949403
0.90029
0.856063
0.817256
0.783798
0.75593
0.733278
0.714981
0.700218
0.688425
0.6791
0.671712
0.665734
0.660751
0.656524
0.652966
0.650059
0.647775
0.646121
0.645315
0.645564
0.645385
1.05536
0.975768
0.907474
0.864744
0.825357
0.790555
0.760516
0.735591
0.715401
0.699102
0.68594
0.675415
0.667069
0.66042
0.654999
0.650444
0.64656
0.643282
0.640588
0.63843
0.636851
0.636313
0.637264
0.636857
0.987067
0.911509
0.856105
0.823324
0.790542
0.760761
0.734776
0.713183
0.695677
0.681489
0.669987
0.660753
0.653392
0.647483
0.642622
0.638504
0.63497
0.631978
0.629499
0.627457
0.625943
0.625741
0.627612
0.626882
0.843839
0.820691
0.795694
0.776981
0.752562
0.728704
0.707268
0.689256
0.674539
0.662492
0.652648
0.644686
0.638288
0.633103
0.628791
0.625104
0.62192
0.619211
0.616942
0.615005
0.61355
0.613762
0.616762
0.615587
0.501008
0.460713
0.429266
0.377354
0.2869
-0.0519957
0.501337
0.463116
0.434562
0.390889
0.339959
0.220856
0.503633
0.467893
0.443698
0.407498
0.371992
0.32899
0.506054
0.474033
0.455061
0.42535
0.39842
0.38005
0.506374
0.480309
0.467017
0.442673
0.423956
0.418002
0.508156
0.486534
0.478629
0.458762
0.446747
0.445487
0.511981
0.493236
0.489435
0.473652
0.465629
0.464382
0.516528
0.500472
0.499517
0.487334
0.480833
0.477291
0.521398
0.508104
0.509098
0.499688
0.492959
0.485819
0.526422
0.516035
0.518251
0.510667
0.502517
0.491169
0.531542
0.524212
0.526945
0.520239
0.50981
0.494103
0.536725
0.532594
0.535121
0.528424
0.515124
0.495111
0.541937
0.541132
0.542759
0.535347
0.518652
0.494314
0.547123
0.549752
0.549865
0.541143
0.520453
0.491595
0.552194
0.5583
0.556456
0.546009
0.520749
0.486854
0.557018
0.566577
0.562583
0.550145
0.519819
0.48005
0.561436
0.574321
0.568322
0.553688
0.517946
0.471243
0.565307
0.58121
0.573786
0.556827
0.515324
0.460626
0.568474
0.586954
0.579117
0.560071
0.512099
0.448456
0.570596
0.591575
0.584679
0.564461
0.508987
0.434911
0.57003
0.595943
0.591733
0.571941
0.508509
0.42064
0.568757
0.601973
0.602713
0.585738
0.515443
0.408991
0.572107
0.609635
0.618255
0.606555
0.532483
0.402969
0.574715
0.615495
0.630871
0.622848
0.556148
0.385166
0.540897
0.714896
0.731565
0.72836
0.713192
0.695604
0.678854
0.664438
0.652452
0.642474
0.634216
0.627464
0.621978
0.617478
0.613691
0.610418
0.607571
0.605136
0.603069
0.601228
0.599831
0.600528
0.604869
0.603085
0.465084
0.627429
0.672731
0.682082
0.674814
0.662837
0.650419
0.639339
0.629856
0.621773
0.614967
0.609322
0.604671
0.600801
0.597498
0.594608
0.592069
0.589883
0.587995
0.586218
0.584806
0.585893
0.591781
0.589855
0.466757
0.579263
0.625978
0.641051
0.63907
0.631479
0.622677
0.614447
0.60711
0.600675
0.595142
0.590472
0.586559
0.583248
0.580377
0.577826
0.575555
0.573576
0.571824
0.570053
0.568509
0.569804
0.577319
0.575982
0.471695
0.551563
0.590261
0.605795
0.606608
0.602091
0.596062
0.590071
0.58447
0.579398
0.574934
0.57109
0.567808
0.564979
0.562483
0.560228
0.558189
0.556384
0.554736
0.55294
0.551255
0.55282
0.561923
0.560638
0.474862
0.531702
0.56193
0.575515
0.5774
0.574802
0.570721
0.566358
0.56208
0.558082
0.554477
0.551308
0.548549
0.546128
0.543953
0.541954
0.540116
0.538463
0.5369
0.535073
0.533265
0.535168
0.545919
0.544375
0.477801
0.515948
0.53859
0.549213
0.551073
0.549465
0.54659
0.543317
0.539986
0.53679
0.533849
0.531214
0.528879
0.526796
0.524895
0.523117
0.521455
0.519933
0.518444
0.516578
0.51465
0.516891
0.529296
0.527458
0.480248
0.503025
0.518866
0.526023
0.527102
0.525758
0.523478
0.520855
0.518151
0.515525
0.513077
0.510854
0.508859
0.507056
0.505387
0.503804
0.502299
0.500898
0.499476
0.497575
0.495528
0.498085
0.512111
0.510002
0.481606
0.49237
0.501681
0.505129
0.504897
0.503265
0.501119
0.498804
0.496477
0.494236
0.492146
0.49024
0.488519
0.486951
0.485488
0.484082
0.482726
0.481441
0.480091
0.478167
0.47601
0.478855
0.494434
0.492115
0.481504
0.482956
0.485828
0.485695
0.483834
0.481531
0.479201
0.476954
0.474824
0.472836
0.47101
0.469357
0.467866
0.466507
0.465232
0.463997
0.462791
0.46163
0.460365
0.458443
0.456199
0.459297
0.476331
0.473914
0.479683
0.473437
0.470628
0.467004
0.463312
0.46011
0.457399
0.45507
0.453028
0.451216
0.449602
0.448168
0.446889
0.44573
0.444644
0.443586
0.44254
0.441519
0.440363
0.43848
0.436185
0.439502
0.457858
0.455521
0.476393
0.463635
0.455424
0.448371
0.44277
0.438565
0.435388
0.432915
0.430919
0.429256
0.427843
0.426627
0.425568
0.424622
0.423741
0.422878
0.422014
0.421159
0.420145
0.418349
0.416052
0.41955
0.439054
0.437064
0.471548
0.452732
0.439414
0.429136
0.421694
0.4165
0.412864
0.410258
0.408323
0.406832
0.405647
0.404682
0.403877
0.40318
0.402539
0.401906
0.401261
0.400607
0.399775
0.398125
0.395887
0.399515
0.419936
0.418689
0.464711
0.439929
0.421947
0.408752
0.399634
0.393557
0.389544
0.386877
0.385072
0.38382
0.382928
0.382278
0.38179
0.381403
0.38106
0.380713
0.380337
0.379934
0.379338
0.377901
0.375788
0.379467
0.400489
0.40059
0.455486
0.424746
0.402503
0.386736
0.376183
0.369405
0.365164
0.362563
0.361002
0.360093
0.359596
0.359357
0.359279
0.359291
0.359333
0.359352
0.359322
0.359241
0.358953
0.357817
0.355901
0.359487
0.380645
0.383098
0.443408
0.406676
0.380574
0.362628
0.350956
0.34373
0.339468
0.337111
0.335949
0.335526
0.335555
0.335855
0.33631
0.336841
0.337384
0.337885
0.338312
0.338661
0.33879
0.338084
0.33646
0.339682
0.360212
0.366884
0.427875
0.385063
0.355585
0.335951
0.323564
0.316217
0.312202
0.310312
0.309744
0.309983
0.310701
0.311693
0.312833
0.314032
0.315227
0.316364
0.317407
0.318347
0.319077
0.319049
0.317914
0.320214
0.338545
0.353442
0.408115
0.359053
0.326852
0.306177
0.293599
0.286546
0.283108
0.281957
0.282215
0.283319
0.284912
0.286773
0.288767
0.290805
0.292828
0.294788
0.296652
0.298413
0.300028
0.30113
0.301022
0.301755
0.315056
0.345971
0.38316
0.327542
0.29356
0.272718
0.260624
0.254383
0.251924
0.251832
0.25318
0.255375
0.258044
0.260959
0.263981
0.267029
0.270053
0.273023
0.275925
0.278775
0.281604
0.284247
0.286052
0.287811
0.2987
0.333801
0.351796
0.289095
0.254767
0.234944
0.224192
0.219398
0.218393
0.219724
0.222452
0.22598
0.229931
0.234079
0.238288
0.242483
0.246624
0.250698
0.254714
0.258704
0.262654
0.266278
0.269396
0.275334
0.292738
0.29772
0.312282
0.241992
0.209478
0.192228
0.183871
0.181279
0.182272
0.185429
0.189849
0.194957
0.200394
0.205939
0.21146
0.216882
0.22216
0.227272
0.232212
0.236987
0.2415
0.24535
0.248699
0.256479
0.276766
0.266833
0.262156
0.184534
0.156782
0.14403
0.139305
0.139771
0.143361
0.14877
0.155199
0.162139
0.16926
0.176359
0.183309
0.190032
0.196474
0.202594
0.208365
0.213777
0.218718
0.222814
0.226428
0.235009
0.256187
0.240884
0.19838
0.115196
0.0960548
0.0900133
0.0902981
0.0947421
0.101534
0.109612
0.118361
0.127374
0.136375
0.145185
0.153687
0.161804
0.169472
0.176634
0.183249
0.189298
0.194706
0.199205
0.203262
0.212361
0.233687
0.216682
0.11405
0.0332022
0.027524
0.0302044
0.0368894
0.0462165
0.0567711
0.0678867
0.079226
0.0905312
0.101598
0.112279
0.122472
0.1321
0.141097
0.149392
0.15693
0.163692
0.169658
0.174675
0.179273
0.188754
0.209875
0.193227
-0.0179364
-0.0595109
-0.0455464
-0.0337297
-0.0200184
-0.00538456
0.0092523
0.0236345
0.0377443
0.0515054
0.0647987
0.0775106
0.0895501
0.100842
0.111313
0.120888
0.129497
0.137118
0.143774
0.149418
0.154637
0.16441
0.185084
0.170266
-0.372724
-0.361346
-0.364403
-0.375357
-0.396347
-0.445281
-0.374643
-0.364469
-0.370516
-0.384693
-0.407609
-0.459572
-0.378802
-0.368811
-0.378011
-0.394092
-0.41451
-0.444295
-0.381963
-0.3723
-0.383842
-0.400186
-0.418659
-0.439235
-0.381103
-0.374437
-0.387919
-0.404276
-0.421465
-0.437962
-0.377782
-0.375983
-0.390938
-0.407473
-0.423906
-0.438456
-0.376884
-0.378008
-0.393566
-0.410199
-0.426269
-0.439818
-0.378143
-0.380714
-0.396035
-0.412598
-0.428566
-0.441534
-0.379516
-0.383615
-0.398329
-0.41473
-0.430678
-0.443297
-0.380832
-0.386334
-0.400335
-0.416609
-0.4325
-0.445029
-0.381955
-0.388752
-0.401951
-0.418204
-0.434023
-0.446715
-0.382874
-0.390805
-0.403119
-0.419434
-0.43529
-0.448345
-0.3836
-0.392402
-0.403797
-0.420248
-0.436311
-0.449947
-0.384139
-0.393503
-0.403961
-0.420636
-0.437072
-0.451577
-0.384525
-0.394087
-0.403614
-0.42057
-0.437524
-0.453173
-0.384843
-0.394188
-0.402773
-0.42002
-0.437586
-0.454602
-0.385206
-0.393881
-0.401501
-0.41896
-0.437124
-0.455615
-0.385415
-0.393264
-0.399894
-0.417364
-0.435929
-0.45583
-0.383604
-0.392448
-0.398105
-0.415217
-0.433714
-0.454664
-0.379753
-0.39172
-0.39643
-0.412595
-0.430129
-0.450757
-0.3781
-0.391762
-0.395452
-0.409849
-0.424842
-0.441024
-0.380611
-0.392974
-0.395647
-0.407393
-0.417395
-0.420016
-0.384441
-0.394862
-0.396564
-0.40448
-0.406515
-0.382225
-0.386254
-0.395637
-0.395274
-0.398269
-0.389231
-0.327091
-0.233239
-0.162021
-0.122138
-0.0978619
-0.0776266
-0.0588621
-0.0405263
-0.0229572
-0.00605646
0.0102291
0.0258585
0.0407449
0.0547994
0.0679389
0.0800821
0.091143
0.101041
0.109738
0.117276
0.123689
0.129621
0.139616
0.159645
0.147761
-0.322224
-0.252194
-0.199043
-0.162027
-0.134261
-0.111885
-0.0914943
-0.0715256
-0.0521166
-0.0333594
-0.0153457
0.00182733
0.0180658
0.0332673
0.0473287
0.0601466
0.0716228
0.0816961
0.0903842
0.0977826
0.104559
0.114739
0.133944
0.125761
-0.370826
-0.312857
-0.262734
-0.223605
-0.191694
-0.164797
-0.141747
-0.120661
-0.100025
-0.0792743
-0.0589534
-0.0394262
-0.020848
-0.00335535
0.0129119
0.0278184
0.0412378
0.0530732
0.0632909
0.0719948
0.0798178
0.0902307
0.108466
0.104413
-0.40361
-0.355606
-0.312332
-0.276765
-0.246922
-0.218817
-0.193107
-0.169719
-0.148087
-0.126726
-0.104942
-0.0832258
-0.0621923
-0.0421769
-0.0233929
-0.00601998
0.00977392
0.0238444
0.0360972
0.0465684
0.0557927
0.0666507
0.0838472
0.0839966
-0.422875
-0.387608
-0.352216
-0.321074
-0.29393
-0.26929
-0.245211
-0.221038
-0.197284
-0.174331
-0.152018
-0.129326
-0.106174
-0.083504
-0.0618802
-0.0416359
-0.0229954
-0.00615067
0.00873847
0.0215907
0.0327701
0.0444956
0.0608018
0.0650343
-0.433938
-0.411301
-0.383633
-0.357245
-0.333218
-0.311664
-0.291227
-0.270686
-0.248207
-0.224238
-0.199922
-0.1758
-0.151759
-0.127272
-0.102793
-0.0793175
-0.0573544
-0.0371869
-0.0190308
-0.00305805
0.0108473
0.024183
0.0401662
0.048203
-0.440934
-0.427818
-0.407526
-0.385822
-0.365198
-0.346453
-0.329146
-0.311979
-0.293758
-0.273492
-0.250002
-0.224235
-0.197892
-0.171656
-0.145408
-0.119087
-0.0935162
-0.0695315
-0.0475237
-0.0277261
-0.0102469
0.00571067
0.0223892
0.0340316
-0.4462
-0.439207
-0.424988
-0.407695
-0.390271
-0.374069
-0.35915
-0.344837
-0.3302
-0.313752
-0.294543
-0.272048
-0.245904
-0.217284
-0.188179
-0.159475
-0.130994
-0.103156
-0.0769269
-0.0527686
-0.0309628
-0.0112674
0.00745587
0.0227192
-0.450352
-0.447295
-0.437543
-0.42393
-0.409198
-0.39501
-0.381863
-0.369478
-0.357255
-0.344101
-0.328771
-0.310038
-0.287485
-0.261225
-0.231642
-0.199867
-0.167935
-0.136918
-0.106793
-0.0781068
-0.0515792
-0.0273513
-0.00530965
0.0139495
-0.453833
-0.453382
-0.44673
-0.435829
-0.423117
-0.410252
-0.398103
-0.386716
-0.375666
-0.364302
-0.351638
-0.336312
-0.317365
-0.294288
-0.267107
-0.236596
-0.203672
-0.169467
-0.135517
-0.102794
-0.071771
-0.0427417
-0.0165215
0.00724609
-0.456984
-0.458382
-0.453869
-0.444839
-0.433441
-0.421222
-0.409188
-0.397732
-0.386677
-0.375501
-0.363611
-0.350082
-0.33371
-0.313608
-0.289479
-0.261438
-0.229935
-0.195896
-0.160539
-0.124996
-0.0900437
-0.0580049
-0.0281588
0.00330885
-0.460042
-0.462987
-0.460038
-0.452392
-0.441758
-0.429614
-0.416966
-0.404406
-0.392018
-0.379575
-0.366628
-0.352671
-0.33688
-0.31829
-0.296309
-0.270756
-0.241771
-0.209824
-0.175658
-0.140141
-0.10425
-0.0687822
-0.0348677
-0.0011039
-0.463242
-0.4677
-0.46629
-0.45961
-0.449611
-0.437284
-0.423593
-0.40923
-0.394301
-0.379117
-0.363482
-0.347115
-0.329631
-0.310391
-0.288735
-0.264438
-0.237498
-0.208033
-0.176393
-0.14307
-0.108673
-0.073518
-0.0389564
-0.00362688
-0.466983
-0.472923
-0.473403
-0.46787
-0.45855
-0.446112
-0.431226
-0.414477
-0.396593
-0.377673
-0.357939
-0.337478
-0.316344
-0.294387
-0.271041
-0.246166
-0.219763
-0.191975
-0.162933
-0.132783
-0.101768
-0.069934
-0.0379163
-0.00480675
-0.471631
-0.479259
-0.481905
-0.478099
-0.469999
-0.457923
-0.442284
-0.423573
-0.402368
-0.379109
-0.354297
-0.328518
-0.302288
-0.27607
-0.248854
-0.22173
-0.194449
-0.16701
-0.139549
-0.112222
-0.0851495
-0.0582755
-0.0316523
-0.00542407
-0.477361
-0.48715
-0.49253
-0.491178
-0.485061
-0.474135
-0.458564
-0.438516
-0.414486
-0.387001
-0.356796
-0.324863
-0.292145
-0.259212
-0.227757
-0.197026
-0.167475
-0.139279
-0.112533
-0.087249
-0.0634697
-0.0412409
-0.020655
-0.00249452
-0.484438
-0.496959
-0.505827
-0.50767
-0.504511
-0.495889
-0.481535
-0.461421
-0.435422
-0.40384
-0.367871
-0.329334
-0.289801
-0.250578
-0.212852
-0.177173
-0.144029
-0.113765
-0.0864933
-0.0622141
-0.0407737
-0.0216774
-0.00403969
0.0101981
-0.493161
-0.508934
-0.522036
-0.527891
-0.528794
-0.523919
-0.512447
-0.493287
-0.465405
-0.429627
-0.388131
-0.342863
-0.295887
-0.249339
-0.20489
-0.163638
-0.12632
-0.0933328
-0.0647695
-0.0405519
-0.0203835
-0.00281978
0.0155842
0.0298545
-0.50387
-0.523181
-0.541098
-0.551722
-0.557892
-0.558111
-0.550407
-0.532797
-0.504464
-0.466104
-0.419337
-0.366652
-0.311292
-0.256377
-0.204302
-0.156688
-0.114534
-0.078358
-0.04827
-0.0241639
-0.00560179
0.00911487
0.0231106
0.0294936
-0.517015
-0.539673
-0.562624
-0.578403
-0.590495
-0.596961
-0.594817
-0.581051
-0.554047
-0.513681
-0.461441
-0.400787
-0.336142
-0.271864
-0.211276
-0.156642
-0.10915
-0.0695281
-0.037772
-0.0137424
0.0029019
0.0128799
0.0167508
0.011636
-0.532707
-0.558347
-0.585914
-0.60684
-0.625372
-0.639142
-0.644303
-0.636408
-0.612148
-0.570439
-0.512906
-0.443791
-0.368822
-0.294343
-0.224643
-0.162684
-0.109837
-0.0666224
-0.032928
-0.00836078
0.00753625
0.0151379
0.0143976
0.00630367
-0.550086
-0.579173
-0.609895
-0.635338
-0.660364
-0.682134
-0.695673
-0.694886
-0.674787
-0.633007
-0.571001
-0.494005
-0.40856
-0.324606
-0.246522
-0.17771
-0.119749
-0.0729618
-0.0369199
-0.0108577
0.00598972
0.0144047
0.01485
0.00959199
-0.570841
-0.60254
-0.633159
-0.661661
-0.692515
-0.721931
-0.743675
-0.750126
-0.7349
-0.694212
-0.629134
-0.546029
-0.453929
-0.362579
-0.278545
-0.205311
-0.144178
-0.0950212
-0.0570076
-0.0290262
-0.00998832
0.00112107
0.00519633
0.00641286
-0.614395
-0.62996
-0.653906
-0.683384
-0.718602
-0.754002
-0.782131
-0.79438
-0.782295
-0.742438
-0.675929
-0.589471
-0.493474
-0.398781
-0.312549
-0.238064
-0.17632
-0.126709
-0.0878668
-0.0581336
-0.0357655
-0.0189789
-0.00642072
0.00161845
)
;

boundaryField
{
    rotor
    {
        type            zeroGradient;
    }
    freestream
    {
        type            freestreamPressure;
        freestreamValue uniform 0;
        supersonic      false;
        value           nonuniform List<scalar> 
96
(
-0.000705786
-0.00160326
-0.00241512
-0.00310228
-0.00338744
-0.00317808
-0.00238308
-0.000805947
0.00173647
0.00543678
0.0105139
0.0171853
0.0256973
0.0363182
0.0493208
0.0650037
0.0838173
0.106879
0.135655
0.160096
0.178603
0.201447
0.2278
0.256796
0.287583
0.319622
0.352433
0.385561
0.418559
0.450974
0.482347
0.512232
0.540206
0.565889
0.588949
0.609085
0.62593
0.639449
0.649789
0.656841
0.660471
0.66067
0.657558
0.651227
0.64186
0.629634
0.614772
0.597511
0.578095
0.557119
0.534796
0.510518
0.484967
0.458549
0.431523
0.404135
0.376628
0.34924
0.322197
0.295725
0.270063
0.245513
0.222544
0.202023
0.18559
0.16765
0.139679
0.11632
0.0970786
0.0803587
0.0656536
0.0527837
0.0416373
0.0321104
0.0240981
0.0174984
0.0122257
0.00818704
0.00523731
0.00318309
0.00179097
0.000859413
0.000366166
-0.000115038
-0.000358129
-0.00044538
-0.000450062
-0.000164134
0.000398337
0.000258696
7.69425e-05
0.000296279
0.000289454
0.00056353
0.000443937
0.000131895
)
;
    }
    frontAndBack
    {
        type            empty;
    }
}


// ************************************************************************* //
