/*--------------------------------*- C++ -*----------------------------------*\
  =========                 |
  \\      /  F ield         | OpenFOAM: The Open Source CFD Toolbox
   \\    /   O peration     | Website:  https://openfoam.org
    \\  /    A nd           | Version:  11
     \\/     M anipulation  |
\*---------------------------------------------------------------------------*/
FoamFile
{
    format      ascii;
    class       surfaceScalarField;
    location    "0.56";
    object      phi;
}
// * * * * * * * * * * * * * * * * * * * * * * * * * * * * * * * * * * * * * //

dimensions      [0 3 -1 0 0 0 0];

internalField   nonuniform List<scalar> 
5640
(
-1.9625e-08
1.9625e-08
-2.47756e-07
2.28131e-07
-5.28326e-07
2.8057e-07
-8.18711e-07
2.90386e-07
-1.64923e-06
8.30518e-07
2.28593e-06
-3.93516e-06
-1.67614e-07
1.87239e-07
-5.45091e-07
6.05608e-07
-9.98547e-07
7.34025e-07
-1.58769e-06
8.7953e-07
-2.50324e-06
1.74607e-06
3.62848e-06
-3.8458e-06
-2.4877e-07
4.3601e-07
-7.01952e-07
1.05879e-06
-1.27348e-06
1.30555e-06
-1.97743e-06
1.58348e-06
-2.82958e-06
2.59822e-06
4.37558e-06
-3.57668e-06
-3.05936e-07
7.41946e-07
-7.98874e-07
1.55173e-06
-1.41873e-06
1.9254e-06
-2.12762e-06
2.29237e-06
-2.82066e-06
3.29127e-06
4.75743e-06
-3.20251e-06
-3.52442e-07
1.09439e-06
-8.52662e-07
2.05195e-06
-1.4679e-06
2.54064e-06
-2.11956e-06
2.94404e-06
-2.64677e-06
3.81848e-06
4.88146e-06
-2.77081e-06
-3.88255e-07
1.48264e-06
-8.69868e-07
2.53356e-06
-1.4426e-06
3.11337e-06
-2.00591e-06
3.50735e-06
-2.37423e-06
4.1868e-06
4.81652e-06
-2.30929e-06
-4.03873e-07
1.88652e-06
-8.48786e-07
2.97847e-06
-1.3593e-06
3.62388e-06
-1.82515e-06
3.9732e-06
-2.05491e-06
4.41656e-06
4.61137e-06
-1.84976e-06
-3.94649e-07
2.28117e-06
-7.92694e-07
3.37652e-06
-1.23077e-06
4.06196e-06
-1.59731e-06
4.33974e-06
-1.71224e-06
4.53148e-06
4.30837e-06
-1.40923e-06
-3.65221e-07
2.64639e-06
-7.06932e-07
3.71823e-06
-1.0675e-06
4.42252e-06
-1.34086e-06
4.6131e-06
-1.36552e-06
4.55615e-06
3.9397e-06
-9.96853e-07
-3.19182e-07
2.96557e-06
-5.96465e-07
3.99551e-06
-8.77548e-07
4.70361e-06
-1.06737e-06
4.80292e-06
-1.02309e-06
4.51187e-06
3.53208e-06
-6.15479e-07
-2.5899e-07
3.22456e-06
-4.65193e-07
4.20171e-06
-6.67299e-07
4.90571e-06
-7.84352e-07
4.91998e-06
-6.89132e-07
4.41665e-06
3.10646e-06
-2.63505e-07
-1.86996e-07
3.41155e-06
-3.1716e-07
4.33188e-06
-4.42167e-07
5.03072e-06
-4.9517e-07
4.97298e-06
-3.64399e-07
4.28588e-06
2.67977e-06
6.22849e-08
-1.05433e-07
3.51699e-06
-1.56271e-07
4.38272e-06
-2.05868e-07
5.08032e-06
-2.01765e-07
4.96888e-06
-4.71239e-08
4.13124e-06
2.26269e-06
3.69961e-07
-1.51864e-08
3.53217e-06
1.31501e-08
4.35438e-06
3.9023e-08
5.05444e-06
9.44093e-08
4.91349e-06
2.62025e-07
3.96362e-06
1.86329e-06
6.61424e-07
7.95594e-08
3.45261e-06
1.9063e-07
4.24331e-06
2.90332e-07
4.95474e-06
3.91764e-07
4.81206e-06
5.62474e-07
3.79291e-06
1.49542e-06
9.30346e-07
1.8569e-07
3.26692e-06
3.70829e-07
4.05817e-06
5.45589e-07
4.77998e-06
6.88931e-07
4.66872e-06
8.49028e-07
3.63282e-06
1.19487e-06
1.14957e-06
3.18646e-07
2.94828e-06
5.48946e-07
3.82787e-06
8.01985e-07
4.52694e-06
9.86895e-07
4.48381e-06
1.12053e-06
3.49918e-06
1.02831e-06
1.2871e-06
4.02866e-07
2.54541e-06
7.12424e-07
3.51831e-06
1.05588e-06
4.18348e-06
1.29057e-06
4.24912e-06
1.39436e-06
3.3954e-06
1.0441e-06
1.37856e-06
4.50218e-07
2.09519e-06
8.55722e-07
3.11281e-06
1.30295e-06
3.73625e-06
1.6077e-06
3.94438e-06
1.70798e-06
3.29511e-06
1.17004e-06
1.58204e-06
4.78709e-07
1.61648e-06
9.74555e-07
2.61696e-06
1.53615e-06
3.17466e-06
1.94437e-06
3.53616e-06
2.09987e-06
3.1396e-06
1.2733e-06
1.99661e-06
4.86507e-07
1.12998e-06
1.06383e-06
2.03964e-06
1.7437e-06
2.4948e-06
2.30193e-06
2.97792e-06
2.60256e-06
2.83898e-06
1.25532e-06
2.62055e-06
4.71502e-07
6.58477e-07
1.11749e-06
1.39365e-06
1.90853e-06
1.70376e-06
2.66177e-06
2.22469e-06
3.23167e-06
2.26908e-06
1.0478e-06
3.43919e-06
4.20644e-07
2.37833e-07
1.12116e-06
6.93132e-07
1.99034e-06
8.3458e-07
2.97409e-06
1.24093e-06
3.93622e-06
1.30696e-06
6.12479e-07
4.37153e-06
2.37833e-07
9.30965e-07
1.76555e-06
3.00647e-06
4.31343e-06
4.92591e-06
-3.13448e-06
1.10585e-05
-1.18592e-05
-3.2536e-06
1.06989e-05
-1.05798e-05
-3.02364e-06
8.43406e-06
-8.66402e-06
-2.33754e-06
5.45655e-06
-6.14266e-06
-1.07387e-06
1.71389e-06
-2.97756e-06
8.72697e-07
-2.92777e-06
9.81204e-07
3.57463e-06
-8.54577e-06
5.84383e-06
6.97196e-06
-1.4968e-05
1.15707e-05
1.09455e-05
-2.1796e-05
1.78225e-05
1.53148e-05
-2.85115e-05
2.41422e-05
1.98638e-05
-3.45674e-05
3.00184e-05
2.43232e-05
-3.94239e-05
3.49644e-05
2.84951e-05
-4.28133e-05
3.86415e-05
3.22929e-05
-4.48475e-05
4.10497e-05
3.57646e-05
-4.59406e-05
4.24689e-05
3.90069e-05
-4.64375e-05
4.31953e-05
4.20732e-05
-4.65242e-05
4.34579e-05
4.50172e-05
-4.63938e-05
4.34497e-05
4.78761e-05
-4.61673e-05
4.33084e-05
5.06657e-05
-4.59154e-05
4.31258e-05
5.33779e-05
-4.56774e-05
4.29652e-05
5.59788e-05
-4.54677e-05
4.28668e-05
5.84091e-05
-4.52774e-05
4.28472e-05
-4.49904e-05
4.28278e-05
-3.19104e-06
1.04037e-05
-2.57395e-06
1.00818e-05
-1.67948e-06
7.53959e-06
-2.73136e-07
4.05021e-06
1.7984e-06
-3.57649e-07
4.61713e-06
-5.7465e-06
8.15913e-06
-1.20878e-05
1.23106e-05
-1.91195e-05
1.68681e-05
-2.63535e-05
2.15914e-05
-3.32349e-05
2.61574e-05
-3.91334e-05
3.02912e-05
-4.35577e-05
3.38924e-05
-4.64144e-05
3.69985e-05
-4.79536e-05
3.97625e-05
-4.87046e-05
4.23375e-05
-4.90125e-05
4.47567e-05
-4.89435e-05
4.70782e-05
-4.87153e-05
4.93302e-05
-4.84193e-05
5.15198e-05
-4.81049e-05
5.36355e-05
-4.77931e-05
5.56481e-05
-4.74804e-05
5.75031e-05
-4.71323e-05
-4.65786e-05
-2.86598e-06
9.69304e-06
-1.78169e-06
8.99748e-06
-3.21859e-07
6.07976e-06
1.73056e-06
1.99779e-06
4.50204e-06
-3.12913e-06
8.03325e-06
-9.27771e-06
1.2253e-05
-1.63075e-05
1.69658e-05
-2.38323e-05
2.18985e-05
-3.12862e-05
2.66965e-05
-3.80328e-05
3.0974e-05
-4.3411e-05
3.45449e-05
-4.71286e-05
3.74637e-05
-4.93332e-05
3.98983e-05
-5.03882e-05
4.20876e-05
-5.0894e-05
4.41078e-05
-5.10327e-05
4.60261e-05
-5.08617e-05
4.78843e-05
-5.05735e-05
4.96941e-05
-5.0229e-05
5.14466e-05
-4.98575e-05
5.31202e-05
-4.94667e-05
5.46831e-05
-4.90433e-05
5.60843e-05
-4.85335e-05
-4.77498e-05
-2.36325e-06
8.85379e-06
-9.3833e-07
7.57256e-06
9.86255e-07
4.15518e-06
3.57925e-06
-5.95199e-07
6.93793e-06
-6.48782e-06
1.10691e-05
-1.34089e-05
1.58359e-05
-2.10742e-05
2.09367e-05
-2.89331e-05
2.59866e-05
-3.63362e-05
3.05108e-05
-4.2557e-05
3.41952e-05
-4.70954e-05
3.70368e-05
-4.99702e-05
3.92512e-05
-5.15476e-05
4.11394e-05
-5.22763e-05
4.28557e-05
-5.26103e-05
4.44196e-05
-5.25967e-05
4.59365e-05
-5.23786e-05
4.7431e-05
-5.2068e-05
4.88986e-05
-5.16965e-05
5.03208e-05
-5.12797e-05
5.16739e-05
-5.08198e-05
5.29307e-05
-5.03001e-05
5.40543e-05
-4.96572e-05
-4.87074e-05
-1.79006e-06
7.87305e-06
-1.1127e-07
5.89376e-06
2.18966e-06
1.85424e-06
5.2413e-06
-3.64683e-06
9.11999e-06
-1.03665e-05
1.37802e-05
-1.80691e-05
1.8956e-05
-2.62501e-05
2.42162e-05
-3.41932e-05
2.90304e-05
-4.11504e-05
3.29443e-05
-4.64709e-05
3.58654e-05
-5.00164e-05
3.80088e-05
-5.21136e-05
3.96921e-05
-5.32309e-05
4.11744e-05
-5.37587e-05
4.24833e-05
-5.39191e-05
4.37191e-05
-5.38325e-05
4.49439e-05
-5.36034e-05
4.61546e-05
-5.32787e-05
4.73411e-05
-5.2883e-05
4.84916e-05
-5.24302e-05
4.95949e-05
-5.19231e-05
5.06362e-05
-5.13415e-05
5.15933e-05
-5.06143e-05
-4.95716e-05
-1.20958e-06
6.77333e-06
6.59969e-07
4.02422e-06
3.27333e-06
-7.59115e-07
6.74494e-06
-7.11845e-06
1.11239e-05
-1.47455e-05
1.62319e-05
-2.31771e-05
2.16137e-05
-3.16319e-05
2.66983e-05
-3.92778e-05
3.09047e-05
-4.53568e-05
3.40153e-05
-4.95815e-05
3.6217e-05
-5.22181e-05
3.78382e-05
-5.37347e-05
3.9142e-05
-5.45347e-05
4.027e-05
-5.48868e-05
4.1312e-05
-5.49611e-05
4.23313e-05
-5.48518e-05
4.33395e-05
-5.46116e-05
4.43348e-05
-5.4274e-05
4.53134e-05
-5.38616e-05
4.62727e-05
-5.33895e-05
4.7209e-05
-5.28594e-05
4.81115e-05
-5.22439e-05
4.89657e-05
-5.14685e-05
-5.03809e-05
-6.6171e-07
5.58528e-06
1.35967e-06
2.00284e-06
4.26137e-06
-3.66081e-06
8.16349e-06
-1.10206e-05
1.30219e-05
-1.96039e-05
1.84138e-05
-2.8569e-05
2.37048e-05
-3.69229e-05
2.82183e-05
-4.37913e-05
3.15899e-05
-4.87284e-05
3.39354e-05
-5.1927e-05
3.55799e-05
-5.38627e-05
3.68144e-05
-5.49692e-05
3.78271e-05
-5.55474e-05
3.87308e-05
-5.57904e-05
3.95841e-05
-5.58144e-05
4.04168e-05
-5.56845e-05
4.12428e-05
-5.54377e-05
4.2068e-05
-5.50993e-05
4.28956e-05
-5.46892e-05
4.37269e-05
-5.42207e-05
4.45563e-05
-5.36889e-05
4.53711e-05
-5.30586e-05
4.61609e-05
-5.22583e-05
-5.11534e-05
-1.6299e-07
4.33903e-06
1.99573e-06
-1.55881e-07
5.20968e-06
-6.87477e-06
9.57466e-06
-1.53855e-05
1.48095e-05
-2.48387e-05
2.02238e-05
-3.39833e-05
2.5035e-05
-4.17341e-05
2.87146e-05
-4.7471e-05
3.12741e-05
-5.12879e-05
3.30216e-05
-5.36745e-05
3.42663e-05
-5.51074e-05
3.52223e-05
-5.59253e-05
3.6023e-05
-5.6348e-05
3.67455e-05
-5.65129e-05
3.74329e-05
-5.65018e-05
3.81095e-05
-5.63612e-05
3.87901e-05
-5.61182e-05
3.9484e-05
-5.57932e-05
4.01973e-05
-5.54025e-05
4.09304e-05
-5.49539e-05
4.16751e-05
-5.44336e-05
4.242e-05
-5.38035e-05
4.31582e-05
-5.29965e-05
-5.18942e-05
2.84465e-07
3.05771e-06
2.59459e-06
-2.46601e-06
6.17982e-06
-1.046e-05
1.09993e-05
-2.0205e-05
1.63982e-05
-3.02376e-05
2.14716e-05
-3.90568e-05
2.54944e-05
-4.57568e-05
2.8324e-05
-5.03006e-05
3.02332e-05
-5.3197e-05
3.15447e-05
-5.4986e-05
3.2495e-05
-5.60577e-05
3.32361e-05
-5.66664e-05
3.38621e-05
-5.69741e-05
3.44311e-05
-5.70819e-05
3.49786e-05
-5.70494e-05
3.5527e-05
-5.69095e-05
3.60909e-05
-5.66822e-05
3.66808e-05
-5.6383e-05
3.73014e-05
-5.60232e-05
3.79506e-05
-5.5603e-05
3.86191e-05
-5.51021e-05
3.92983e-05
-5.44827e-05
3.99838e-05
-5.3682e-05
-5.25968e-05
6.88677e-07
1.75356e-06
3.2007e-06
-4.97803e-06
7.22081e-06
-1.44801e-05
1.23669e-05
-2.53511e-05
1.76206e-05
-3.54913e-05
2.20071e-05
-4.34433e-05
2.51613e-05
-4.8911e-05
2.72843e-05
-5.24236e-05
2.87085e-05
-5.46212e-05
2.96939e-05
-5.59714e-05
3.04123e-05
-5.67761e-05
3.09738e-05
-5.72279e-05
3.14495e-05
-5.74498e-05
3.18853e-05
-5.75177e-05
3.23116e-05
-5.74756e-05
3.2749e-05
-5.73469e-05
3.32125e-05
-5.71457e-05
3.37111e-05
-5.68817e-05
3.42477e-05
-5.65598e-05
3.48174e-05
-5.61727e-05
3.54119e-05
-5.56966e-05
3.6024e-05
-5.50947e-05
3.66513e-05
-5.43093e-05
-5.32514e-05
1.06324e-06
4.26814e-07
3.85049e-06
-7.76528e-06
8.3165e-06
-1.89461e-05
1.35587e-05
-3.05933e-05
1.83043e-05
-4.02368e-05
2.18399e-05
-4.6979e-05
2.42319e-05
-5.13029e-05
2.58126e-05
-5.40044e-05
2.6869e-05
-5.56776e-05
2.7596e-05
-5.66984e-05
2.81204e-05
-5.73005e-05
2.85255e-05
-5.7633e-05
2.88667e-05
-5.7791e-05
2.91819e-05
-5.78329e-05
2.94976e-05
-5.77913e-05
2.98331e-05
-5.76825e-05
3.02021e-05
-5.75147e-05
3.06122e-05
-5.72917e-05
3.10638e-05
-5.70114e-05
3.15515e-05
-5.66604e-05
3.20678e-05
-5.62129e-05
3.26069e-05
-5.56338e-05
3.31684e-05
-5.48708e-05
-5.38477e-05
1.42929e-06
-9.40186e-07
4.57974e-06
-1.09157e-05
9.3888e-06
-2.37552e-05
1.44041e-05
-3.56087e-05
1.83874e-05
-4.42201e-05
2.11178e-05
-4.97093e-05
2.29022e-05
-5.30874e-05
2.4063e-05
-5.51652e-05
2.48255e-05
-5.644e-05
2.53358e-05
-5.72087e-05
2.56901e-05
-5.76549e-05
2.59535e-05
-5.78963e-05
2.61705e-05
-5.8008e-05
2.63727e-05
-5.80351e-05
2.65832e-05
-5.80018e-05
2.68195e-05
-5.79187e-05
2.70936e-05
-5.77887e-05
2.74112e-05
-5.76094e-05
2.77721e-05
-5.73723e-05
2.81712e-05
-5.70595e-05
2.86024e-05
-5.66441e-05
2.90608e-05
-5.60922e-05
2.95477e-05
-5.53577e-05
-5.43747e-05
1.80723e-06
-2.37746e-06
5.37933e-06
-1.44878e-05
1.0328e-05
-2.87038e-05
1.47962e-05
-4.00769e-05
1.79587e-05
-4.73827e-05
2.00101e-05
-5.17607e-05
2.13136e-05
-5.43909e-05
2.21365e-05
-5.59881e-05
2.26517e-05
-5.69553e-05
2.29715e-05
-5.75284e-05
2.31711e-05
-5.78545e-05
2.33025e-05
-5.80276e-05
2.34017e-05
-5.81073e-05
2.34951e-05
-5.81284e-05
2.3602e-05
-5.81088e-05
2.37375e-05
-5.80542e-05
2.39119e-05
-5.79631e-05
2.41302e-05
-5.78277e-05
2.43922e-05
-5.76343e-05
2.46942e-05
-5.73615e-05
2.50318e-05
-5.69817e-05
2.54013e-05
-5.64617e-05
2.58045e-05
-5.57608e-05
-5.48223e-05
2.22625e-06
-3.94228e-06
6.20517e-06
-1.84668e-05
1.10032e-05
-3.35018e-05
1.47314e-05
-4.38051e-05
1.71517e-05
-4.9803e-05
1.86503e-05
-5.32593e-05
1.95615e-05
-5.5302e-05
2.00989e-05
-5.65255e-05
2.03967e-05
-5.72531e-05
2.05431e-05
-5.76748e-05
2.05983e-05
-5.79097e-05
2.06042e-05
-5.80335e-05
2.05899e-05
-5.8093e-05
2.05764e-05
-5.81149e-05
2.05792e-05
-5.81116e-05
2.06105e-05
-5.80855e-05
2.0679e-05
-5.80316e-05
2.07896e-05
-5.79383e-05
2.09433e-05
-5.7788e-05
2.11389e-05
-5.75571e-05
2.13739e-05
-5.72166e-05
2.1646e-05
-5.67338e-05
2.1957e-05
-5.60718e-05
-5.51821e-05
2.70885e-06
-5.72079e-06
7.0034e-06
-2.27613e-05
1.13433e-05
-3.78417e-05
1.42991e-05
-4.67609e-05
1.60841e-05
-5.15879e-05
1.71259e-05
-5.43011e-05
1.77061e-05
-5.58822e-05
1.79931e-05
-5.68126e-05
1.80933e-05
-5.73533e-05
1.80777e-05
-5.76593e-05
1.79956e-05
-5.78275e-05
1.78804e-05
-5.79184e-05
1.77552e-05
-5.79678e-05
1.76358e-05
-5.79954e-05
1.75336e-05
-5.80094e-05
1.74576e-05
-5.80095e-05
1.74147e-05
-5.79887e-05
1.74099e-05
-5.79335e-05
1.74464e-05
-5.78245e-05
1.75258e-05
-5.76366e-05
1.76487e-05
-5.73395e-05
1.78147e-05
-5.68999e-05
1.80259e-05
-5.6283e-05
-5.54468e-05
3.23336e-06
-7.80457e-06
7.69011e-06
-2.72181e-05
1.13645e-05
-4.15161e-05
1.36013e-05
-4.89978e-05
1.48478e-05
-5.28344e-05
1.55009e-05
-5.49542e-05
1.57897e-05
-5.6171e-05
1.58487e-05
-5.68715e-05
1.57638e-05
-5.72684e-05
1.55936e-05
-5.74891e-05
1.53783e-05
-5.76123e-05
1.51449e-05
-5.76849e-05
1.49105e-05
-5.77335e-05
1.46862e-05
-5.77711e-05
1.44791e-05
-5.78023e-05
1.42946e-05
-5.7825e-05
1.41375e-05
-5.78315e-05
1.40123e-05
-5.78084e-05
1.39241e-05
-5.77363e-05
1.38781e-05
-5.75905e-05
1.38788e-05
-5.73402e-05
1.39296e-05
-5.69507e-05
1.40337e-05
-5.63871e-05
-5.56118e-05
3.75402e-06
-1.02715e-05
8.16625e-06
-3.16303e-05
1.11237e-05
-4.44735e-05
1.27173e-05
-5.05914e-05
1.3502e-05
-5.36192e-05
1.38146e-05
-5.52668e-05
1.3839e-05
-5.61953e-05
1.36845e-05
-5.6717e-05
1.34225e-05
-5.70064e-05
1.31019e-05
-5.71685e-05
1.27557e-05
-5.7266e-05
1.24048e-05
-5.73341e-05
1.20619e-05
-5.73906e-05
1.17336e-05
-5.74428e-05
1.14232e-05
-5.74918e-05
1.11322e-05
-5.75341e-05
1.08626e-05
-5.75619e-05
1.06173e-05
-5.75631e-05
1.04018e-05
-5.75208e-05
1.0224e-05
-5.74127e-05
1.00935e-05
-5.72097e-05
1.0019e-05
-5.68761e-05
1.00086e-05
-5.63767e-05
-5.56767e-05
4.2987e-06
-1.31916e-05
8.40996e-06
-3.57415e-05
1.06864e-05
-4.675e-05
1.17169e-05
-5.16218e-05
1.20934e-05
-5.39957e-05
1.2096e-05
-5.52693e-05
1.18724e-05
-5.59718e-05
1.15133e-05
-5.63579e-05
1.10786e-05
-5.65717e-05
1.06091e-05
-5.66991e-05
1.01317e-05
-5.67886e-05
9.66251e-06
-5.68649e-05
9.21008e-06
-5.69381e-05
8.77782e-06
-5.70106e-05
8.366e-06
-5.708e-05
7.97335e-06
-5.71415e-05
7.59863e-06
-5.71872e-05
7.24217e-06
-5.72066e-05
6.90751e-06
-5.71862e-05
6.60272e-06
-5.71079e-05
6.34016e-06
-5.69471e-05
6.13268e-06
-5.66686e-05
5.99142e-06
-5.62354e-05
-5.56512e-05
4.93384e-06
-1.65434e-05
8.50144e-06
-3.93091e-05
1.01238e-05
-4.83724e-05
1.06501e-05
-5.21481e-05
1.06523e-05
-5.39979e-05
1.03627e-05
-5.49797e-05
9.90119e-06
-5.55103e-05
9.34261e-06
-5.57993e-05
8.73716e-06
-5.59663e-05
8.11843e-06
-5.60803e-05
7.50759e-06
-5.61777e-05
6.91656e-06
-5.62739e-05
6.35087e-06
-5.63725e-05
5.81195e-06
-5.64716e-05
5.29865e-06
-5.65667e-05
4.80858e-06
-5.66514e-05
4.33922e-06
-5.67178e-05
3.88915e-06
-5.67566e-05
3.45944e-06
-5.67564e-05
3.05551e-06
-5.6704e-05
2.689e-06
-5.65806e-05
2.37723e-06
-5.63569e-05
2.13e-06
-5.59882e-05
-5.54742e-05
5.70093e-06
-2.02478e-05
8.52357e-06
-4.21318e-05
9.48849e-06
-4.93373e-05
9.54572e-06
-5.22054e-05
9.19425e-06
-5.36465e-05
8.6241e-06
-5.44095e-05
7.9315e-06
-5.48177e-05
7.17699e-06
-5.50448e-05
6.40156e-06
-5.51908e-05
5.63188e-06
-5.53107e-05
4.88366e-06
-5.54295e-05
4.16487e-06
-5.55551e-05
3.47861e-06
-5.56862e-05
2.82509e-06
-5.58181e-05
2.20301e-06
-5.59446e-05
1.61052e-06
-5.60589e-05
1.04606e-06
-5.61534e-05
5.0916e-07
-5.62197e-05
8.61795e-10
-5.62481e-05
-4.75908e-07
-5.62272e-05
-9.11935e-07
-5.61446e-05
-1.28216e-06
-5.59866e-05
-1.55924e-06
-5.57111e-05
-5.50543e-05
6.57918e-06
-2.42064e-05
8.50923e-06
-4.40618e-05
8.80838e-06
-4.96365e-05
8.41665e-06
-5.18136e-05
7.72608e-06
-5.29559e-05
6.88469e-06
-5.35681e-05
5.96664e-06
-5.38997e-05
5.01935e-06
-5.40975e-05
4.07473e-06
-5.42462e-05
3.1523e-06
-5.43882e-05
2.26222e-06
-5.45394e-05
1.40845e-06
-5.47013e-05
5.91699e-07
-5.48695e-05
-1.89249e-07
-5.50372e-05
-9.36356e-07
-5.51975e-05
-1.65182e-06
-5.53434e-05
-2.33767e-06
-5.54675e-05
-2.99564e-06
-5.55617e-05
-3.62708e-06
-5.56167e-05
-4.23276e-06
-5.56216e-05
-4.81401e-06
-5.55633e-05
-5.38092e-06
-5.54197e-05
-5.966e-06
-5.5126e-05
-5.45972e-05
7.496e-06
-2.82632e-05
8.47072e-06
-4.50366e-05
8.09302e-06
-4.92588e-05
7.26324e-06
-5.09839e-05
6.24668e-06
-5.19393e-05
5.14356e-06
-5.2465e-05
4.00689e-06
-5.2763e-05
2.87158e-06
-5.29622e-05
1.7601e-06
-5.31347e-05
6.84425e-07
-5.33125e-05
-3.5082e-07
-5.35042e-05
-1.34517e-06
-5.3707e-05
-2.3007e-06
-5.39139e-05
-3.22011e-06
-5.41178e-05
-4.10643e-06
-5.43112e-05
-4.96279e-06
-5.44871e-05
-5.79233e-06
-5.4638e-05
-6.59823e-06
-5.47558e-05
-7.38359e-06
-5.48313e-05
-8.15154e-06
-5.48536e-05
-8.90602e-06
-5.48089e-05
-9.65123e-06
-5.46745e-05
-1.0372e-05
-5.44052e-05
-5.40075e-05
8.46274e-06
-3.23544e-05
8.4222e-06
-4.4996e-05
7.32893e-06
-4.81655e-05
6.07096e-06
-4.97259e-05
4.74548e-06
-5.06138e-05
3.3949e-06
-5.11144e-05
2.05075e-06
-5.14188e-05
7.35446e-07
-5.16469e-05
-5.37966e-07
-5.18613e-05
-1.7647e-06
-5.20858e-05
-2.94541e-06
-5.23235e-05
-4.08319e-06
-5.25692e-05
-5.18175e-06
-5.28154e-05
-6.24508e-06
-5.30544e-05
-7.27696e-06
-5.32793e-05
-8.28102e-06
-5.3483e-05
-9.26067e-06
-5.36583e-05
-1.0219e-05
-5.37974e-05
-1.11586e-05
-5.38917e-05
-1.20811e-05
-5.39311e-05
-1.29865e-05
-5.39035e-05
-1.38701e-05
-5.3791e-05
-1.47114e-05
-5.35639e-05
-5.32803e-05
1.00493e-05
-3.74778e-05
8.24381e-06
-4.31905e-05
6.45047e-06
-4.63722e-05
4.81174e-06
-4.80872e-05
3.20866e-06
-4.90108e-05
1.63248e-06
-4.95382e-05
9.70056e-08
-4.98834e-05
-1.38602e-06
-5.01639e-05
-2.81328e-06
-5.04341e-05
-4.18663e-06
-5.07125e-05
-5.51069e-06
-5.09994e-05
-6.79095e-06
-5.12889e-05
-8.03255e-06
-5.15738e-05
-9.24007e-06
-5.18469e-05
-1.04175e-05
-5.21019e-05
-1.15684e-05
-5.23321e-05
-1.26957e-05
-5.2531e-05
-1.38018e-05
-5.26914e-05
-1.48877e-05
-5.28058e-05
-1.5953e-05
-5.28658e-05
-1.69948e-05
-5.28617e-05
-1.80049e-05
-5.27808e-05
-1.89637e-05
-5.26051e-05
-5.24244e-05
-2.27929e-07
2.27929e-07
1.72847e-07
-4.00777e-07
1.29398e-06
-1.12114e-06
2.9982e-06
-1.70421e-06
6.79943e-06
-3.80123e-06
-7.46491e-06
1.42643e-05
-5.11125e-08
2.79042e-07
5.70402e-07
-1.02229e-06
1.74713e-06
-2.29786e-06
3.59654e-06
-3.55363e-06
6.22986e-06
-6.43454e-06
-1.13294e-05
1.00943e-05
9.16347e-08
1.87407e-07
7.98549e-07
-1.72921e-06
1.95032e-06
-3.44963e-06
3.63947e-06
-5.24279e-06
5.70457e-06
-8.49965e-06
-1.34605e-05
7.83567e-06
2.08116e-07
-2.07092e-08
9.24413e-07
-2.4455e-06
1.98786e-06
-4.51307e-06
3.42889e-06
-6.68382e-06
4.9873e-06
-1.0058e-05
-1.46878e-05
6.2146e-06
2.96201e-07
-3.1691e-07
9.71687e-07
-3.12099e-06
1.90569e-06
-5.44707e-06
3.06677e-06
-7.8449e-06
4.16966e-06
-1.11609e-05
-1.53178e-05
4.79965e-06
3.45427e-07
-6.62337e-07
9.51649e-07
-3.72721e-06
1.73361e-06
-6.22904e-06
2.61171e-06
-8.723e-06
3.31121e-06
-1.18604e-05
-1.55021e-05
3.4955e-06
3.56083e-07
-1.01842e-06
8.75567e-07
-4.2467e-06
1.49588e-06
-6.84935e-06
2.10356e-06
-9.33068e-06
2.45215e-06
-1.2209e-05
-1.53374e-05
2.2875e-06
3.32521e-07
-1.35094e-06
7.55906e-07
-4.67008e-06
1.21344e-06
-7.30688e-06
1.57172e-06
-9.68896e-06
1.61929e-06
-1.22566e-05
-1.4893e-05
1.17489e-06
2.82057e-07
-1.633e-06
6.04958e-07
-4.99298e-06
9.04473e-07
-7.6064e-06
1.03852e-06
-9.82301e-06
8.30773e-07
-1.20489e-05
-1.42196e-05
1.57316e-07
2.12816e-07
-1.84581e-06
4.34168e-07
-5.21433e-06
5.84494e-07
-7.75673e-06
5.2097e-07
-9.75948e-06
9.92395e-08
-1.16271e-05
-1.33611e-05
-7.59241e-07
1.32471e-07
-1.97828e-06
2.53597e-07
-5.33546e-06
2.66224e-07
-7.76935e-06
3.17519e-08
-9.52501e-06
-5.67263e-07
-1.10281e-05
-1.23492e-05
-1.57917e-06
4.76767e-08
-2.02596e-06
7.16401e-08
-5.35942e-06
-4.03581e-08
-7.65735e-06
-4.19536e-07
-9.14583e-06
-1.16317e-06
-1.02845e-05
-1.12118e-05
-2.30053e-06
-3.60403e-08
-1.98992e-06
-1.04963e-07
-5.2905e-06
-3.2782e-07
-7.4345e-06
-8.2683e-07
-8.64682e-06
-1.68498e-06
-9.42632e-06
-9.97371e-06
-2.92308e-06
-1.14071e-07
-1.87585e-06
-2.70968e-07
-5.1336e-06
-5.9095e-07
-7.11452e-06
-1.1861e-06
-8.05167e-06
-2.13066e-06
-8.48175e-06
-8.65774e-06
-3.44663e-06
-1.82524e-07
-1.69333e-06
-4.22199e-07
-4.89393e-06
-8.26461e-07
-6.71025e-06
-1.49553e-06
-7.38261e-06
-2.49938e-06
-7.4779e-06
-7.28626e-06
-3.87086e-06
-2.37874e-07
-1.45545e-06
-5.55249e-07
-4.57655e-06
-1.03263e-06
-6.23287e-06
-1.75513e-06
-6.66011e-06
-2.79127e-06
-6.44176e-06
-5.88271e-06
-4.19482e-06
-2.76732e-07
-1.17872e-06
-6.67223e-07
-4.18606e-06
-1.2091e-06
-5.691e-06
-1.96687e-06
-5.90233e-06
-3.008e-06
-5.40063e-06
-4.47374e-06
-4.41698e-06
-2.95715e-07
-8.83005e-07
-7.55623e-07
-3.72615e-06
-1.35686e-06
-5.08976e-06
-2.13478e-06
-5.12441e-06
-3.15299e-06
-4.38242e-06
-3.09165e-06
-4.53508e-06
-2.9142e-07
-5.91585e-07
-8.1797e-07
-3.1996e-06
-1.47793e-06
-4.42981e-06
-2.26539e-06
-4.33696e-06
-3.23225e-06
-3.41556e-06
-1.77869e-06
-4.54522e-06
-2.60198e-07
-3.31387e-07
-8.51298e-07
-2.6085e-06
-1.57496e-06
-3.70615e-06
-2.36879e-06
-3.54313e-06
-3.25717e-06
-2.52717e-06
-5.95736e-07
-4.44012e-06
-2.07355e-07
-1.24032e-07
-8.52453e-07
-1.96341e-06
-1.65023e-06
-2.90838e-06
-2.45962e-06
-2.73373e-06
-3.25308e-06
-1.73371e-06
3.54458e-07
-4.20327e-06
-1.41482e-07
1.745e-08
-8.19467e-07
-1.28542e-06
-1.70238e-06
-2.02546e-06
-2.55316e-06
-1.88296e-06
-3.25583e-06
-1.03104e-06
8.87261e-07
-3.78864e-06
-5.52236e-08
7.26735e-08
-7.41662e-07
-5.98981e-07
-1.71445e-06
-1.05267e-06
-2.63605e-06
-9.61353e-07
-3.25674e-06
-4.10355e-07
7.36506e-07
-3.10598e-06
7.26735e-08
-5.26308e-07
-1.57898e-06
-2.54033e-06
-2.95069e-06
-2.21418e-06
9.98951e-06
-3.3203e-05
7.4556e-06
-4.06566e-05
5.36395e-06
-4.42805e-05
3.45292e-06
-4.61761e-05
1.62062e-06
-4.71785e-05
-1.49472e-07
-4.77681e-05
-1.85267e-06
-4.81802e-05
-3.48802e-06
-4.85285e-05
-5.05879e-06
-4.88633e-05
-6.57174e-06
-4.91995e-05
-8.03436e-06
-4.95368e-05
-9.45354e-06
-4.98698e-05
-1.0835e-05
-5.01923e-05
-1.21834e-05
-5.04985e-05
-1.35027e-05
-5.07826e-05
-1.47957e-05
-5.10391e-05
-1.60649e-05
-5.12619e-05
-1.73113e-05
-5.1445e-05
-1.85349e-05
-5.15822e-05
-1.97336e-05
-5.16671e-05
-2.09025e-05
-5.16928e-05
-2.20326e-05
-5.16508e-05
-2.3106e-05
-5.15316e-05
-5.14461e-05
8.14345e-06
-3.12521e-05
6.12079e-06
-3.86339e-05
4.04069e-06
-4.22004e-05
1.97706e-06
-4.41125e-05
-2.23237e-08
-4.51791e-05
-1.94663e-06
-4.58438e-05
-3.79238e-06
-4.63344e-05
-5.56258e-06
-4.67583e-05
-7.26511e-06
-4.71608e-05
-8.90936e-06
-4.75553e-05
-1.05041e-05
-4.7942e-05
-1.20566e-05
-4.83172e-05
-1.35726e-05
-4.86763e-05
-1.50565e-05
-4.90146e-05
-1.65115e-05
-4.93276e-05
-1.79401e-05
-4.96105e-05
-1.93437e-05
-4.98583e-05
-2.07225e-05
-5.00661e-05
-2.20755e-05
-5.02292e-05
-2.33993e-05
-5.03433e-05
-2.46883e-05
-5.04039e-05
-2.5933e-05
-5.04061e-05
-2.71177e-05
-5.03469e-05
-5.03497e-05
6.69898e-06
-3.01154e-05
4.73441e-06
-3.66694e-05
2.5898e-06
-4.00558e-05
4.20669e-07
-4.19434e-05
-1.69953e-06
-4.30589e-05
-3.74456e-06
-4.37988e-05
-5.70921e-06
-4.43698e-05
-7.59835e-06
-4.48692e-05
-9.4213e-06
-4.53378e-05
-1.11882e-05
-4.57884e-05
-1.29077e-05
-4.62225e-05
-1.45868e-05
-4.66381e-05
-1.62307e-05
-4.70324e-05
-1.78431e-05
-4.74022e-05
-1.94268e-05
-4.77439e-05
-2.09834e-05
-4.80538e-05
-2.25137e-05
-4.8328e-05
-2.40172e-05
-4.85626e-05
-2.54919e-05
-4.87546e-05
-2.69336e-05
-4.89015e-05
-2.83363e-05
-4.90013e-05
-2.96906e-05
-4.90517e-05
-3.09827e-05
-4.90547e-05
-4.91396e-05
5.18073e-06
-2.90815e-05
3.25292e-06
-3.47416e-05
1.0674e-06
-3.78703e-05
-1.17357e-06
-3.97024e-05
-3.38154e-06
-4.08509e-05
-5.52214e-06
-4.16582e-05
-7.58762e-06
-4.23043e-05
-9.58246e-06
-4.28744e-05
-1.15156e-05
-4.34047e-05
-1.33965e-05
-4.39075e-05
-1.5233e-05
-4.4386e-05
-1.70312e-05
-4.48399e-05
-1.87955e-05
-4.52682e-05
-2.05289e-05
-4.56688e-05
-2.22335e-05
-4.60393e-05
-2.39104e-05
-4.63769e-05
-2.55596e-05
-4.66788e-05
-2.718e-05
-4.69423e-05
-2.87688e-05
-4.71658e-05
-3.03216e-05
-4.73487e-05
-3.18318e-05
-4.74911e-05
-3.32905e-05
-4.7593e-05
-3.46859e-05
-4.76594e-05
-4.78202e-05
3.6837e-06
-2.79656e-05
1.74941e-06
-3.28073e-05
-4.68594e-07
-3.56523e-05
-2.76335e-06
-3.74076e-05
-5.03962e-06
-3.85747e-05
-7.25903e-06
-3.94388e-05
-9.41211e-06
-4.01512e-05
-1.1502e-05
-4.07845e-05
-1.35362e-05
-4.13704e-05
-1.55229e-05
-4.19209e-05
-1.74684e-05
-4.24404e-05
-1.93778e-05
-4.29305e-05
-2.12546e-05
-4.33914e-05
-2.3101e-05
-4.38223e-05
-2.49185e-05
-4.42218e-05
-2.67076e-05
-4.45879e-05
-2.84677e-05
-4.49187e-05
-3.01971e-05
-4.52128e-05
-3.18927e-05
-4.54701e-05
-3.35496e-05
-4.56919e-05
-3.5161e-05
-4.58797e-05
-3.67188e-05
-4.60352e-05
-3.82129e-05
-4.61653e-05
-4.6396e-05
2.24619e-06
-2.67163e-05
2.76269e-07
-3.08374e-05
-1.97674e-06
-3.33993e-05
-4.31664e-06
-3.50677e-05
-6.64989e-06
-3.62414e-05
-8.93729e-06
-3.71514e-05
-1.11683e-05
-3.79202e-05
-1.33445e-05
-3.86083e-05
-1.54717e-05
-3.92432e-05
-1.75561e-05
-3.98365e-05
-1.96027e-05
-4.03938e-05
-2.16152e-05
-4.0918e-05
-2.35963e-05
-4.14103e-05
-2.55475e-05
-4.18711e-05
-2.74697e-05
-4.22997e-05
-2.93627e-05
-4.26949e-05
-3.12256e-05
-4.30558e-05
-3.30563e-05
-4.33822e-05
-3.48511e-05
-4.36753e-05
-3.66048e-05
-4.39381e-05
-3.83109e-05
-4.41736e-05
-3.99621e-05
-4.4384e-05
-4.15504e-05
-4.4577e-05
-4.48716e-05
8.89614e-07
-2.53184e-05
-1.1347e-06
-2.88131e-05
-3.42716e-06
-3.11068e-05
-5.80932e-06
-3.26856e-05
-8.1933e-06
-3.38574e-05
-1.05416e-05
-3.48031e-05
-1.28434e-05
-3.56184e-05
-1.50986e-05
-3.63531e-05
-1.73112e-05
-3.70306e-05
-1.94855e-05
-3.76622e-05
-2.16251e-05
-3.82542e-05
-2.37326e-05
-3.88105e-05
-2.58097e-05
-3.93332e-05
-2.78574e-05
-3.98235e-05
-2.98757e-05
-4.02813e-05
-3.18644e-05
-4.07063e-05
-3.38219e-05
-4.10982e-05
-3.57458e-05
-4.14583e-05
-3.76319e-05
-4.17892e-05
-3.94751e-05
-4.2095e-05
-4.12692e-05
-4.23795e-05
-4.3008e-05
-4.26451e-05
-4.46856e-05
-4.28994e-05
-4.3252e-05
-3.72588e-07
-2.37709e-05
-2.46299e-06
-2.67227e-05
-4.79965e-06
-2.87701e-05
-7.22354e-06
-3.02617e-05
-9.6549e-06
-3.14261e-05
-1.20594e-05
-3.23986e-05
-1.44261e-05
-3.32517e-05
-1.67538e-05
-3.40254e-05
-1.90446e-05
-3.47397e-05
-2.13012e-05
-3.54056e-05
-2.35258e-05
-3.60296e-05
-2.572e-05
-3.66163e-05
-2.78847e-05
-3.71685e-05
-3.00203e-05
-3.76879e-05
-3.21264e-05
-3.81751e-05
-3.42023e-05
-3.86304e-05
-3.62461e-05
-3.90545e-05
-3.82548e-05
-3.94496e-05
-4.02243e-05
-3.98197e-05
-4.21493e-05
-4.017e-05
-4.40245e-05
-4.05042e-05
-4.58452e-05
-4.08245e-05
-4.76069e-05
-4.11377e-05
-4.15427e-05
-1.53318e-06
-2.20804e-05
-3.69552e-06
-2.45603e-05
-6.08018e-06
-2.63855e-05
-8.54635e-06
-2.77955e-05
-1.10231e-05
-2.89493e-05
-1.34801e-05
-2.99417e-05
-1.59067e-05
-3.08251e-05
-1.83008e-05
-3.16313e-05
-2.06628e-05
-3.23777e-05
-2.29941e-05
-3.30743e-05
-2.52956e-05
-3.37281e-05
-2.75681e-05
-3.43437e-05
-2.98119e-05
-3.49247e-05
-3.20268e-05
-3.54731e-05
-3.42122e-05
-3.59898e-05
-3.63667e-05
-3.64759e-05
-3.84882e-05
-3.6933e-05
-4.05734e-05
-3.73644e-05
-4.2618e-05
-3.77752e-05
-4.46172e-05
-3.81708e-05
-4.65668e-05
-3.85546e-05
-4.84632e-05
-3.89281e-05
-5.03037e-05
-3.92972e-05
-3.97498e-05
-2.58651e-06
-2.02531e-05
-4.82429e-06
-2.23225e-05
-7.25961e-06
-2.39502e-05
-9.76862e-06
-2.52865e-05
-1.22893e-05
-2.64286e-05
-1.47954e-05
-2.74356e-05
-1.72771e-05
-2.83434e-05
-1.97315e-05
-2.91769e-05
-2.21577e-05
-2.99514e-05
-2.45559e-05
-3.06761e-05
-2.69261e-05
-3.13578e-05
-2.92685e-05
-3.20014e-05
-3.15828e-05
-3.26105e-05
-3.38684e-05
-3.31875e-05
-3.61242e-05
-3.37339e-05
-3.83486e-05
-3.42514e-05
-4.05392e-05
-3.47424e-05
-4.26923e-05
-3.52113e-05
-4.48038e-05
-3.56637e-05
-4.68698e-05
-3.61048e-05
-4.88869e-05
-3.65374e-05
-5.08529e-05
-3.69621e-05
-5.2766e-05
-3.73841e-05
-3.78798e-05
-3.53166e-06
-1.83006e-05
-5.84505e-06
-2.00092e-05
-8.33234e-06
-2.14629e-05
-1.08841e-05
-2.27347e-05
-1.3447e-05
-2.38657e-05
-1.59988e-05
-2.48838e-05
-1.85306e-05
-2.58116e-05
-2.1039e-05
-2.66686e-05
-2.35222e-05
-2.74682e-05
-2.59793e-05
-2.8219e-05
-2.841e-05
-2.89271e-05
-3.08136e-05
-2.95977e-05
-3.31896e-05
-3.02345e-05
-3.5537e-05
-3.08401e-05
-3.78545e-05
-3.14165e-05
-4.014e-05
-3.19659e-05
-4.23908e-05
-3.24916e-05
-4.46033e-05
-3.29988e-05
-4.67738e-05
-3.34932e-05
-4.8899e-05
-3.39795e-05
-5.09769e-05
-3.44596e-05
-5.30057e-05
-3.49332e-05
-5.49848e-05
-3.5405e-05
-3.59397e-05
-4.36822e-06
-1.62329e-05
-6.75591e-06
-1.76215e-05
-9.29522e-06
-1.89236e-05
-1.18889e-05
-2.0141e-05
-1.44917e-05
-2.12629e-05
-1.70854e-05
-2.22901e-05
-1.9662e-05
-2.3235e-05
-2.22176e-05
-2.41129e-05
-2.47502e-05
-2.49357e-05
-2.72582e-05
-2.5711e-05
-2.97406e-05
-2.64447e-05
-3.21968e-05
-2.71416e-05
-3.46256e-05
-2.78057e-05
-3.70259e-05
-2.84398e-05
-3.9396e-05
-2.90464e-05
-4.17336e-05
-2.96282e-05
-4.40359e-05
-3.01894e-05
-4.62993e-05
-3.07353e-05
-4.85209e-05
-3.12716e-05
-5.06982e-05
-3.18022e-05
-5.28297e-05
-3.23281e-05
-5.49142e-05
-3.28488e-05
-5.69512e-05
-3.3368e-05
-3.39359e-05
-5.09668e-06
-1.40593e-05
-7.55659e-06
-1.51616e-05
-1.0147e-05
-1.63332e-05
-1.27806e-05
-1.75074e-05
-1.54205e-05
-1.86229e-05
-1.80517e-05
-1.9659e-05
-2.0667e-05
-2.06197e-05
-2.32629e-05
-2.15171e-05
-2.58368e-05
-2.23617e-05
-2.83872e-05
-2.31607e-05
-3.09127e-05
-2.39192e-05
-3.34123e-05
-2.4642e-05
-3.58848e-05
-2.53331e-05
-3.83288e-05
-2.59958e-05
-4.07424e-05
-2.66328e-05
-4.31231e-05
-2.72475e-05
-4.5468e-05
-2.78445e-05
-4.77741e-05
-2.84293e-05
-5.0039e-05
-2.90067e-05
-5.22611e-05
-2.95801e-05
-5.44393e-05
-3.01499e-05
-5.65723e-05
-3.07158e-05
-5.86591e-05
-3.12812e-05
-3.18768e-05
-5.71822e-06
-1.17878e-05
-8.24801e-06
-1.26318e-05
-1.08877e-05
-1.36934e-05
-1.35587e-05
-1.48365e-05
-1.62319e-05
-1.59497e-05
-1.88952e-05