/*--------------------------------*- C++ -*----------------------------------*\
  =========                 |
  \\      /  F ield         | OpenFOAM: The Open Source CFD Toolbox
   \\    /   O peration     | Website:  https://openfoam.org
    \\  /    A nd           | Version:  11
     \\/     M anipulation  |
\*---------------------------------------------------------------------------*/
FoamFile
{
    format      ascii;
    class       volVectorField;
    location    "0.56";
    object      U;
}
// * * * * * * * * * * * * * * * * * * * * * * * * * * * * * * * * * * * * * //

dimensions      [0 1 -1 0 0 0 0];

internalField   nonuniform List<vector> 
2880
(
(-0.0146215 0.0329223 -2.31017e-20)
(-0.033328 0.0497528 2.19625e-18)
(-0.0855636 0.0451961 9.77584e-19)
(-0.103234 0.0538147 -8.97866e-20)
(-0.116965 0.0929693 6.31363e-19)
(-0.360448 0.11292 -5.83735e-19)
(-0.041405 0.0281102 0)
(-0.077923 0.0409497 -1.05839e-18)
(-0.141324 0.0297138 8.28505e-19)
(-0.173911 0.0338897 0)
(-0.227685 0.056014 1.51195e-19)
(-0.370096 0.068417 3.01073e-19)
(-0.0567071 0.0270208 -3.62973e-20)
(-0.107779 0.038603 3.08004e-20)
(-0.17747 0.023628 -7.88594e-19)
(-0.222653 0.0253764 0)
(-0.292034 0.0474761 5.55874e-19)
(-0.386309 0.0911815 0)
(-0.0710634 0.0274157 1.6907e-20)
(-0.133266 0.0381662 -8.85844e-20)
(-0.205072 0.0227165 -4.77494e-20)
(-0.255586 0.0233485 -6.23541e-19)
(-0.322394 0.0467239 -4.67973e-19)
(-0.386916 0.0999285 0)
(-0.0861887 0.0270996 0)
(-0.156437 0.0382282 5.67716e-20)
(-0.226716 0.0246829 -4.47746e-20)
(-0.277088 0.0251085 6.02021e-19)
(-0.334376 0.0484554 1.24402e-19)
(-0.377061 0.0993098 -4.15428e-21)
(-0.102206 0.0269862 1.97052e-20)
(-0.177065 0.0377956 0)
(-0.243146 0.0282126 0)
(-0.289956 0.0289912 0)
(-0.335499 0.0512514 -1.17988e-19)
(-0.359492 0.0961399 4.0601e-19)
(-0.120663 0.0304551 -1.45966e-18)
(-0.193441 0.0382105 -7.95793e-19)
(-0.254929 0.0327069 7.55404e-19)
(-0.296411 0.0341113 4.85488e-19)
(-0.330278 0.0541911 0)
(-0.337788 0.0923464 -3.96558e-19)
(-0.134525 0.032687 1.30757e-18)
(-0.205595 0.039774 8.5677e-19)
(-0.262718 0.0379931 -6.57617e-19)
(-0.298131 0.0401133 -5.44797e-19)
(-0.320501 0.0575576 0)
(-0.313749 0.0885003 9.46679e-20)
(-0.145964 0.0352257 -2.10039e-20)
(-0.214214 0.0423992 0)
(-0.267234 0.0440449 8.02014e-20)
(-0.296436 0.0468519 -6.65026e-20)
(-0.308353 0.0612582 0)
(-0.288879 0.0852543 -9.38487e-20)
(-0.155854 0.0383771 1.33965e-18)
(-0.219891 0.0460039 8.01416e-19)
(-0.269056 0.0509247 -7.8759e-20)
(-0.292357 0.0541657 -4.57088e-19)
(-0.29516 0.0656295 0)
(-0.264218 0.0831156 -9.36705e-20)
(-0.163875 0.0416929 -1.77411e-21)
(-0.222942 0.0505738 -7.96283e-19)
(-0.26865 0.0586898 -7.01992e-19)
(-0.287024 0.0622508 5.85503e-19)
(-0.28177 0.0707978 -4.41522e-19)
(-0.240511 0.0824929 0)
(-0.169639 0.0448958 -1.33688e-18)
(-0.22368 0.0560841 0)
(-0.266624 0.0673611 6.22632e-19)
(-0.281024 0.0711723 5.17611e-19)
(-0.268917 0.0770618 4.38604e-22)
(-0.21833 0.0837182 0)
(-0.172925 0.0479626 -4.16313e-20)
(-0.222417 0.0624584 2.47492e-20)
(-0.263455 0.0769562 -6.20892e-19)
(-0.274857 0.0810436 -7.20245e-22)
(-0.257144 0.0846375 5.00879e-19)
(-0.198113 0.0869613 -4.40774e-19)
(-0.173586 0.0511204 2.08429e-20)
(-0.21945 0.0695886 -3.95898e-19)
(-0.259457 0.0875034 3.12678e-19)
(-0.268954 0.0919348 -7.83093e-19)
(-0.246911 0.093621 0)
(-0.180294 0.0920533 3.9676e-19)
(-0.171685 0.0552698 0)
(-0.215065 0.0773854 4.00507e-19)
(-0.254867 0.099017 6.66683e-19)
(-0.263678 0.10382 2.30116e-19)
(-0.238749 0.103977 0)
(-0.165403 0.0981308 0)
(-0.167782 0.0633117 -2.06563e-20)
(-0.209673 0.0857202 1.26887e-20)
(-0.249926 0.111461 -3.16972e-19)
(-0.25941 0.116605 -3.31227e-20)
(-0.233215 0.11565 3.19426e-22)
(-0.154621 0.103456 2.61269e-20)
(-0.155317 0.0819836 -3.08892e-19)
(-0.203956 0.0938268 -2.03959e-19)
(-0.244743 0.124545 2.00667e-20)
(-0.256374 0.130195 -1.52072e-19)
(-0.231044 0.12885 1.17961e-19)
(-0.149969 0.106264 2.59167e-20)
(-0.144472 0.0859401 2.36884e-19)
(-0.197671 0.0995796 1.99797e-19)
(-0.2391 0.137577 5.06144e-21)
(-0.254533 0.144551 1.37302e-19)
(-0.232854 0.144398 -1.04743e-19)
(-0.152978 0.106715 0)
(-0.134301 0.0807099 3.41428e-20)
(-0.189955 0.102669 -1.64965e-21)
(-0.232366 0.149988 2.60691e-21)
(-0.253417 0.159658 -7.68978e-20)
(-0.238621 0.163615 -1.14183e-20)
(-0.163072 0.107631 0)
(-0.12031 0.0741245 -2.60528e-19)
(-0.179252 0.103056 0)
(-0.223706 0.161378 0)
(-0.252049 0.175068 2.1685e-19)
(-0.247238 0.188055 0)
(-0.176768 0.112987 0)
(-0.104485 0.0667067 2.65935e-19)
(-0.16523 0.100611 -4.38271e-19)
(-0.212439 0.171358 0)
(-0.248307 0.189471 -1.86817e-19)
(-0.257877 0.220418 3.23352e-20)
(-0.189897 0.125328 0)
(-0.0903449 0.0581188 0)
(-0.148286 0.0949946 4.60207e-19)
(-0.198428 0.179284 4.63321e-20)
(-0.24004 0.200981 -3.85271e-20)
(-0.267923 0.26173 -6.96919e-20)
(-0.200832 0.147372 6.11723e-20)
(-0.0752962 0.0466985 4.06722e-20)
(-0.127558 0.0842394 2.56986e-23)
(-0.181068 0.182703 -7.30065e-20)
(-0.225286 0.204516 4.01867e-20)
(-0.274474 0.311785 7.38657e-20)
(-0.205545 0.171114 -8.38399e-21)
(-0.0472425 0.0163685 0)
(-0.0919492 0.0488394 0)
(-0.148202 0.162857 8.64337e-19)
(-0.184372 0.175652 -4.19985e-20)
(-0.261203 0.361326 6.64743e-19)
(-0.171956 0.143068 -5.36331e-19)
(-0.39904 0.359251 0)
(-0.378009 0.359677 1.99411e-19)
(-0.334278 0.333249 9.13474e-20)
(-0.273678 0.292557 -2.79826e-19)
(-0.191144 0.238583 0)
(-0.08355 0.167564 -3.50428e-19)
(0.0498358 0.0764689 4.9087e-21)
(0.205188 -0.0329893 3.31665e-22)
(0.373722 -0.152728 -1.53013e-19)
(0.543071 -0.271672 -1.33591e-19)
(0.701908 -0.377685 0)
(0.837654 -0.459058 -2.78161e-19)
(0.941213 -0.509021 1.54742e-19)
(1.01334 -0.528715 -1.33627e-19)
(1.06117 -0.526459 0)
(1.09209 -0.509731 6.98901e-20)
(1.11146 -0.483664 -2.32527e-20)
(1.12327 -0.452878 6.33445e-20)
(1.13037 -0.420425 -9.41697e-20)
(1.13453 -0.388226 7.41935e-20)
(1.13671 -0.357582 -9.27384e-21)
(1.13728 -0.329213 -1.04002e-21)
(1.13586 -0.303272 -1.32917e-20)
(1.13145 -0.277181 2.01515e-21)
(-0.429321 0.302447 8.34237e-21)
(-0.374357 0.340384 1.60619e-19)
(-0.299028 0.320538 -9.70809e-20)
(-0.204908 0.283453 3.70916e-19)
(-0.0875311 0.229963 3.64701e-19)
(0.055983 0.157917 3.56267e-19)
(0.224248 0.0656755 0)
(0.410281 -0.0431601 0)
(0.601606 -0.159996 -3.02673e-19)
(0.784799 -0.273597 -2.60797e-19)
(0.945624 -0.371886 2.4645e-19)
(1.06924 -0.443802 1.94198e-19)
(1.1512 -0.484919 1.55337e-19)
(1.19774 -0.498021 0)
(1.2213 -0.493011 -1.69678e-19)
(1.23089 -0.477092 1.94474e-20)
(1.23139 -0.453114 -9.66039e-20)
(1.22646 -0.425479 1.34036e-19)
(1.21856 -0.396713 0)
(1.20902 -0.368223 3.84069e-20)
(1.19837 -0.340689 -3.68362e-20)
(1.18646 -0.314286 -9.20325e-21)
(1.17251 -0.288804 -7.19101e-21)
(1.15347 -0.260729 1.11819e-21)
(-0.426295 0.256593 3.93877e-19)
(-0.351901 0.309885 -3.19716e-19)
(-0.251141 0.299181 9.94731e-20)
(-0.126498 0.266049 -6.54708e-19)
(0.0235301 0.213691 -1.87114e-19)
(0.199911 0.141863 0)
(0.398802 0.0511701 -3.40484e-19)
(0.609815 -0.0536776 3.22583e-19)
(0.817568 -0.163231 -5.4782e-22)
(1.00634 -0.2668 2.60219e-19)
(1.15683 -0.352125 -4.36521e-19)
(1.25811 -0.411133 3.77296e-19)
(1.31304 -0.442623 -1.65353e-19)
(1.33409 -0.450389 1.17515e-19)
(1.33755 -0.443878 0)
(1.33131 -0.431426 1.42007e-19)
(1.31742 -0.41044 5.56343e-20)
(1.30045 -0.386701 -4.14239e-20)
(1.28197 -0.361861 3.29359e-20)
(1.26264 -0.336855 2.48976e-20)
(1.24252 -0.312118 0)
(1.22106 -0.287609 -4.11535e-20)
(1.19671 -0.262581 3.18194e-20)
(1.1657 -0.232761 1.92741e-20)
(-0.40604 0.22329 -5.16911e-19)
(-0.316189 0.276739 4.31071e-19)
(-0.193401 0.272468 0)
(-0.0410707 0.242622 1.82476e-19)
(0.139173 0.191992 5.31752e-19)
(0.346029 0.122109 -3.45025e-19)
(0.572581 0.0356912 1.7191e-19)
(0.803648 -0.061356 1.57681e-19)
(1.02013 -0.15969 0)
(1.20091 -0.248865 -5.01711e-19)
(1.32715 -0.318751 4.49623e-19)
(1.39771 -0.364591 -1.65197e-19)
(1.42432 -0.388599 4.20328e-19)
(1.42378 -0.393656 -3.56961e-19)
(1.41496 -0.390758 0)
(1.3959 -0.380064 -1.98644e-19)
(1.37168 -0.363611 1.67132e-19)
(1.34644 -0.34435 -9.52422e-20)
(1.32064 -0.323505 -6.51179e-20)
(1.29431 -0.301728 -2.45134e-20)
(1.2672 -0.279289 0)
(1.2386 -0.25608 -4.42872e-20)
(1.20675 -0.231149 8.80353e-21)
(1.16817 -0.200001 2.08781e-20)
(-0.37554 0.196743 4.36707e-19)
(-0.271977 0.244077 4.25128e-19)
(-0.12857 0.242796 3.83633e-19)
(0.0498984 0.215516 3.61929e-19)
(0.259632 0.167592 -7.04286e-19)
(0.496458 0.102248 5.07534e-19)
(0.747866 0.0230605 1.60448e-19)
(0.991303 -0.0620678 -2.95452e-19)
(1.20308 -0.146019 1.5628e-20)
(1.35913 -0.218823 4.70957e-19)
(1.45068 -0.273949 -2.11278e-19)
(1.48967 -0.309694 0)
(1.49384 -0.329407 0)
(1.48264 -0.336128 -1.00929e-19)
(1.46135 -0.334612 -1.54272e-19)
(1.43356 -0.326974 2.68445e-19)
(1.40389 -0.315209 -1.15803e-19)
(1.37349 -0.30047 0)
(1.34252 -0.283582 1.40125e-21)
(1.31096 -0.265074 0)
(1.27864 -0.245172 0)
(1.24495 -0.223703 -4.29474e-20)
(1.20816 -0.199488 4.08997e-20)
(1.16506 -0.168237 3.91532e-21)
(-0.339113 0.173375 -5.57613e-19)
(-0.221975 0.212705 -3.17593e-19)
(-0.0580439 0.212033 -7.64491e-19)
(0.147125 0.187172 -7.18425e-19)
(0.387905 0.143986 3.48904e-19)
(0.65493 0.0861357 -1.38456e-20)
(0.924136 0.0186577 6.05999e-19)
(1.16697 -0.0526309 -5.62772e-19)
(1.35547 -0.12078 2.58945e-19)
(1.47319 -0.178866 -1.34571e-21)
(1.52915 -0.222817 -2.26401e-20)
(1.54364 -0.252494 -2.4126e-20)
(1.53515 -0.269979 -3.77615e-20)
(1.51351 -0.278204 -2.00152e-19)
(1.4853 -0.279497 -7.28802e-20)
(1.45404 -0.275642 1.1187e-19)
(1.42116 -0.267703 -1.06123e-19)
(1.38737 -0.25659 0)
(1.35293 -0.243011 8.29145e-20)
(1.31799 -0.22745 -4.99115e-20)
(1.28252 -0.210094 5.69543e-20)
(1.2458 -0.190656 -5.40033e-20)
(1.20604 -0.167733 -6.64225e-21)
(1.16019 -0.137512 0)
(-0.300022 0.152448 -1.20871e-19)
(-0.167983 0.18321 1.07555e-19)
(0.0183244 0.181967 3.81599e-19)
(0.25351 0.160585 3.57139e-19)
(0.528604 0.125213 0)
(0.821214 0.0789581 -3.22093e-19)
(1.09545 0.0257776 -3.00755e-19)
(1.31852 -0.0314069 2.51979e-19)
(1.46661 -0.0861922 2.19185e-19)
(1.54419 -0.133476 2.05607e-22)
(1.5723 -0.170368 -1.51086e-19)
(1.57093 -0.19672 2.81216e-19)
(1.55298 -0.213871 2.97651e-19)
(1.52636 -0.22367 -1.73415e-19)
(1.49526 -0.227716 2.21506e-19)
(1.46171 -0.227043 1.5024e-19)
(1.42672 -0.222471 -5.42992e-20)
(1.39089 -0.214644 0)
(1.35457 -0.204111 0)
(1.31799 -0.191291 0)
(1.28099 -0.176345 0)
(1.24262 -0.158842 0)
(1.20116 -0.137372 -1.42705e-20)
(1.15368 -0.10874 1.89313e-20)
(-0.259964 0.133995 -6.31527e-20)
(-0.110697 0.156154 0)
(0.102372 0.154625 -9.38421e-20)
(0.373394 0.140002 4.26725e-19)
(0.682991 0.115951 0)
(0.989212 0.0849866 0)
(1.24948 0.044872 0)
(1.43256 -0.000698565 -2.51381e-19)
(1.53638 -0.0463563 3.91108e-19)
(1.58188 -0.086811 -1.82671e-19)
(1.59126 -0.119466 -1.33252e-19)
(1.57976 -0.144096 0)
(1.55667 -0.161614 -9.93617e-20)
(1.52726 -0.173105 -7.96422e-20)
(1.49443 -0.179547 0)
(1.4597 -0.181704 -5.01723e-20)
(1.42383 -0.180127 -6.29569e-21)
(1.3873 -0.175286 -3.71818e-20)
(1.35047 -0.167621 0)
(1.31348 -0.157466 -1.36716e-20)
(1.27589 -0.144898 2.77604e-20)
(1.23666 -0.1294 -4.08142e-20)
(1.19423 -0.109591 -3.99695e-21)
(1.14578 -0.0829151 6.7482e-21)
(-0.219871 0.118047 6.30549e-20)
(-0.0496262 0.13223 -3.15403e-19)
(0.197392 0.132645 -4.62977e-19)
(0.510106 0.129183 -5.11358e-19)
(0.846022 0.121566 1.55202e-19)
(1.14718 0.103959 0)
(1.37118 0.073706 2.42412e-19)
(1.50669 0.034937 -2.2467e-19)
(1.57367 -0.00515536 -3.66452e-19)
(1.59687 -0.0413471 3.02347e-19)
(1.5941 -0.0715052 2.46891e-19)
(1.57635 -0.09539 -9.22025e-20)
(1.55014 -0.113517 7.33868e-20)
(1.51928 -0.126587 -5.78646e-20)
(1.48589 -0.135211 4.5135e-20)
(1.45106 -0.139851 1.04983e-19)
(1.41534 -0.14089 2.00532e-20)
(1.37915 -0.138698 -7.52688e-20)
(1.34275 -0.133637 1.3811e-20)
(1.3061 -0.125979 2.26824e-20)
(1.26852 -0.115716 9.1406e-21)
(1.22896 -0.102337 -2.45037e-21)
(1.18609 -0.084384 9.08456e-21)
(1.13709 -0.0599996 4.31277e-22)
(-0.180147 0.104701 4.36863e-19)
(0.016877 0.112421 4.28438e-19)
(0.307336 0.120067 4.66104e-19)
(0.661553 0.133082 1.62775e-19)
(1.00689 0.142089 -4.29241e-21)
(1.2799 0.13329 -1.33958e-19)
(1.45469 0.107454 0)
(1.54823 0.0720995 -1.82041e-19)
(1.58858 0.0354067 0)
(1.59682 0.00183291 -1.40241e-19)
(1.58611 -0.0269528 -1.62387e-20)
(1.56442 -0.0506683 7.67863e-20)
(1.53653 -0.0695837 4.90117e-20)
(1.50526 -0.0841109 -1.08096e-20)
(1.47214 -0.0946277 -9.26353e-21)
(1.43798 -0.101434 -8.00196e-21)
(1.40319 -0.104792 -3.97713e-20)
(1.36805 -0.104984 3.73434e-20)
(1.33267 -0.102296 -5.18542e-21)
(1.29677 -0.0969455 -9.1217e-21)
(1.25958 -0.0888986 1.62812e-21)
(1.22007 -0.0776532 -2.45628e-21)
(1.17708 -0.0616544 1.15393e-20)
(1.1279 -0.0397733 -1.10917e-20)
(-0.140799 0.0940749 -4.98769e-19)
(0.0913528 0.0981688 0)
(0.434241 0.120285 -3.60862e-19)
(0.819956 0.154679 1.56832e-19)
(1.15166 0.174178 2.79775e-19)
(1.37723 0.168187 -8.50091e-21)
(1.50491 0.142785 -1.07024e-19)
(1.56676 0.109081 1.79998e-19)
(1.58861 0.0744265 2.759e-19)
(1.58669 0.0423491 -1.01964e-19)
(1.57074 0.0142006 0)
(1.54668 -0.00969281 -1.41192e-20)
(1.5181 -0.0294413 0)
(1.48712 -0.045292 -4.60761e-20)
(1.45489 -0.0574831 -1.14228e-19)
(1.42197 -0.0662073 8.03701e-20)
(1.38862 -0.0716453 -4.72644e-20)
(1.35498 -0.0740075 -1.57511e-20)
(1.32096 -0.0735114 -1.40163e-21)
(1.28609 -0.0703321 7.46338e-21)
(1.24952 -0.0644564 -1.6009e-21)
(1.21032 -0.0553546 4.89059e-21)
(1.16749 -0.0413763 -7.35201e-21)
(1.11843 -0.0221122 -7.6572e-21)
(-0.101385 0.0863188 -6.11102e-20)
(0.177143 0.0920133 4.77863e-19)
(0.576194 0.138036 3.63391e-19)
(0.973024 0.190597 -1.2877e-20)
(1.26663 0.213113 2.54452e-19)
(1.44075 0.204724 1.04837e-19)
(1.53068 0.178282 -2.66742e-19)
(1.56963 0.145195 -8.9484e-20)
(1.57852 0.111549 -1.7173e-19)
(1.56962 0.0801481 2.85352e-19)
(1.55025 0.0521352 -1.15998e-21)
(1.52491 0.0278499 -1.95752e-21)
(1.49637 0.00726339 4.61503e-20)
(1.46621 -0.00978233 2.43266e-20)
(1.4353 -0.0234516 9.38965e-21)
(1.40401 -0.0338795 -2.67521e-20)
(1.37244 -0.0411942 6.91345e-23)
(1.34054 -0.0455476 1.37442e-20)
(1.30806 -0.0471015 -6.03565e-21)
(1.27439 -0.0460013 2.88409e-21)
(1.23865 -0.0422644 0)
(1.19996 -0.0353232 -1.38589e-20)
(1.15753 -0.0234068 -2.91615e-20)
(1.10885 -0.00679272 4.41031e-20)
(-0.060959 0.0816472 6.17461e-20)
(0.276648 0.0972903 -3.80512e-19)
(0.72503 0.174896 8.21581e-20)
(1.10678 0.23613 -3.72987e-19)
(1.34823 0.254735 -1.89113e-19)
(1.47747 0.241499 -9.35138e-20)
(1.53905 0.213359 1.69078e-19)
(1.56158 0.180098 -1.92253e-19)
(1.56133 0.146647 0)
(1.54765 0.115313 -1.49697e-19)
(1.52617 0.0870803 -5.0293e-20)
(1.50037 0.0622652 -3.65145e-20)
(1.47239 0.0408637 3.33716e-20)
(1.44345 0.0227492 -2.40769e-20)
(1.41415 0.00778027 1.57309e-20)
(1.3847 -0.00416017 3.79995e-21)
(1.35507 -0.0131739 4.98541e-21)
(1.32505 -0.0193693 -2.3295e-23)
(1.29422 -0.0228626 -1.44333e-20)
(1.26188 -0.0237786 1.35813e-20)
(1.22715 -0.0221624 0)
(1.18919 -0.017397 8.95888e-21)
(1.14736 -0.00755193 0)
(1.0993 0.00645351 -7.74962e-21)
(-0.0181583 0.0804302 2.62869e-19)
(0.390556 0.119562 0)
(0.869704 0.22598 -1.75106e-19)
(1.21171 0.286206 2.01427e-19)
(1.4007 0.296444 -5.93582e-20)
(1.49434 0.278074 1.1219e-20)
(1.53494 0.24771 6.17247e-20)
(1.54561 0.213549 -3.11515e-22)
(1.53892 0.179648 -3.39996e-20)
(1.52209 0.147933 2.49568e-20)
(1.4995 0.119232 -5.79e-20)
(1.47389 0.0938087 3.23828e-20)
(1.44689 0.0716408 0)
(1.41943 0.052589 0)
(1.3919 0.0364947 0)
(1.3644 0.0232251 0)
(1.33677 0.0126792 -5.42416e-21)
(1.30866 0.00477444 -2.26141e-20)
(1.27954 -0.000569672 2.64676e-21)
(1.24867 -0.0034588 5.31618e-20)
(1.21514 -0.00395596 3.81083e-21)
(1.17812 -0.00138055 4.69716e-21)
(1.1371 0.00641174 -3.26851e-20)
(1.08993 0.0179256 0)
(0.0288216 0.0826945 -2.66957e-19)
(0.515416 0.164376 -1.5738e-19)
(0.997223 0.285564 1.18425e-19)
(1.2861 0.337642 -2.5949e-19)
(1.42989 0.337662 9.33249e-20)
(1.49623 0.31398 1.1702e-20)
(1.52143 0.280932 5.01717e-20)
(1.52363 0.245304 -3.56874e-20)
(1.51254 0.210469 3.37215e-20)
(1.49382 0.178044 0)
(1.47095 0.148707 0)
(1.44605 0.122644 0)
(1.42036 0.0997805 4.37263e-22)
(1.39455 0.0799326 -8.60171e-21)
(1.36887 0.0628941 4.70125e-21)
(1.34332 0.0484883 1.34263e-20)
(1.31764 0.036588 -1.62777e-20)
(1.29143 0.0271136 -9.94788e-21)
(1.26407 0.0200071 -7.47103e-21)
(1.23479 0.0151808 8.87314e-21)
(1.20266 0.0125737 -1.8765e-20)
(1.16684 0.0129427 -4.38826e-20)
(1.12687 0.0187188 4.21178e-20)
(1.08082 0.0279561 -1.47704e-20)
(0.0819156 0.0876202 -3.17223e-20)
(0.644441 0.230774 2.35504e-19)
(1.09846 0.349497 -1.25951e-19)
(1.33352 0.388387 9.14502e-20)
(1.44072 0.378307 -5.35341e-20)
(1.48658 0.348999 5.35145e-21)
(1.50061 0.312736 -4.36024e-20)
(1.49688 0.275137 5.31726e-20)
(1.48299 0.23899 0)
(1.46345 0.205617 -8.59363e-21)
(1.44099 0.17554 8.03233e-21)
(1.41725 0.14884 1.5043e-21)
(1.39314 0.125369 -6.69097e-21)
(1.36911 0.104874 8.10355e-21)
(1.34529 0.0870824 0)
(1.3216 0.0717532 0)
(1.29778 0.058707 8.99642e-21)
(1.27338 0.0478382 3.42407e-20)
(1.24779 0.0390898 -2.29742e-20)
(1.22021 0.0323818 1.09059e-20)
(1.1897 0.0276725 0)
(1.15537 0.0258129 -2.71519e-20)
(1.1167 0.0296043 -3.49502e-23)
(1.07209 0.0369219 2.57628e-20)
(0.143542 0.0955109 -1.7704e-20)
(0.76981 0.311547 0)
(1.17258 0.414381 -3.53144e-20)
(1.35811 0.43752 0)
(1.43686 0.417728 4.62032e-22)
(1.46764 0.382598 3.55983e-20)
(1.47376 0.342701 -1.63886e-20)
(1.46615 0.302753 6.19425e-21)
(1.45083 0.265022 0)
(1.43138 0.230545 0)
(1.40995 0.199673 0)
(1.38778 0.172366 -2.24259e-21)
(1.36548 0.148381 0)
(1.34332 0.127387 -3.3277e-21)
(1.32135 0.109038 0)
(1.29944 0.0930195 0)
(1.27732 0.0790818 0)
(1.25459 0.0670631 -1.53666e-20)
(1.23067 0.0568735 1.04261e-20)
(1.20483 0.0484189 1.14564e-20)
(1.17613 0.0416636 -1.07747e-20)
(1.1436 0.0375561 4.20976e-21)
(1.10655 0.0393261 -4.42587e-21)
(1.06384 0.0453494 1.67897e-20)
(0.218245 0.115546 0)
(0.881305 0.399273 0)
(1.22121 0.478803 3.50696e-20)
(1.36346 0.484964 0)
(1.42084 0.455555 -1.61355e-20)
(1.44092 0.414304 -1.05259e-20)
(1.44179 0.370398 0)
(1.43203 0.327809 0)
(1.41644 0.288308 -2.85182e-22)
(1.39791 0.252643 2.28636e-21)
(1.37809 0.220966 -1.68263e-21)
(1.35785 0.193097 2.22299e-21)
(1.33759 0.168689 -4.88542e-21)
(1.31742 0.147329 6.89936e-21)
(1.2973 0.128603 0)
(1.27708 0.112133 -1.01769e-20)
(1.25652 0.0976015 -6.53121e-22)
(1.23526 0.0847726 7.45158e-21)
(1.21283 0.0734924 2.94283e-21)
(1.18861 0.063626 2.97808e-21)
(1.16175 0.0550919 -5.40443e-21)
(1.1312 0.0487741 -5.50474e-21)
(1.0961 0.0481552 5.79694e-21)
(1.05613 0.054153 -4.13755e-21)
(0.306169 0.167101 0)
(0.9694 0.490477 4.56196e-20)
(1.24603 0.54314 -2.70587e-20)
(1.35253 0.530634 -1.83764e-21)
(1.3944 0.491194 1.6442e-21)
(1.40738 0.443465 0)
(1.40528 0.395276 0)
(1.3949 0.349871 -3.38685e-22)
(1.38015 0.308527 8.16806e-23)
(1.36329 0.271666 0)
(1.34559 0.23922 0)
(1.32764 0.210846 0)
(1.30964 0.186085 1.04004e-21)
(1.2916 0.164451 2.97907e-21)
(1.27341 0.145481 5.12624e-21)
(1.2549 0.128757 -1.32449e-21)
(1.23586 0.113922 0)
(1.21597 0.10069 1.21067e-21)
(1.19488 0.0888531 1.02715e-21)
(1.17213 0.078243 -3.8645e-21)
(1.14703 0.0686796 1.22266e-21)
(1.11867 0.0605112 1.24268e-21)
(1.08598 0.056278 -1.30546e-21)
(1.04828 0.0650733 0)
(0.3951 0.263638 -1.45463e-20)
(1.02874 0.583839 -3.33123e-20)
(1.24814 0.606685 2.67207e-20)
(1.32716 0.573839 0)
(1.35864 0.523681 0)
(1.3677 0.469204 0)
(1.36472 0.416668 5.97469e-21)
(1.35516 0.368449 1.32431e-20)
(1.34222 0.325319 -1.49997e-20)
(1.32773 0.287349 1.24981e-20)
(1.31262 0.254218 0)
(1.29727 0.225404 1.24608e-20)
(1.28175 0.200333 -1.16799e-20)
(1.266 0.178452 -1.89451e-20)
(1.24988 0.159265 0)
(1.23324 0.14234 0)
(1.21586 0.127316 1.26777e-20)
(1.19753 0.113906 0)
(1.17794 0.101899 5.50374e-21)
(1.15679 0.0911208 0)
(1.13371 0.0812453 0)
(1.10822 0.0719883 -2.30167e-20)
(1.07877 0.0649714 4.76501e-20)
(1.03885 0.0794122 -2.44984e-20)
(0.475959 0.402663 0)
(1.0572 0.675972 -1.14432e-19)
(1.22788 0.666701 -8.25699e-20)
(1.28842 0.613077 1.59895e-20)
(1.31437 0.551718 -4.56916e-21)
(1.32253 0.490546 -6.7552e-21)
(1.32063 0.433848 1.18669e-20)
(1.31321 0.383022 -1.94172e-20)
(1.30299 0.338322 1.11933e-20)
(1.29147 0.299437 2.72603e-21)
(1.27934 0.265768 -4.71551e-20)
(1.26684 0.236605 -3.26423e-20)
(1.25396 0.211254 6.1945e-20)
(1.24063 0.189098 -4.42698e-20)
(1.22671 0.169602 2.76851e-20)
(1.21206 0.152315 -2.78385e-20)
(1.19652 0.136861 -1.45412e-20)
(1.17988 0.122934 0)
(1.16189 0.110281 0)
(1.14227 0.0985837 2.62572e-20)
(1.12072 0.0872411 0)
(1.09659 0.0761797 2.55607e-20)
(1.06728 0.0695272 2.70334e-20)
(1.02648 0.080559 2.80201e-20)
(0.553182 0.580282 -4.4637e-20)
(1.05377 0.762518 8.20349e-20)
(1.18577 0.71911 5.56635e-20)
(1.23737 0.646126 9.0268e-21)
(1.26264 0.573763 -2.52922e-20)
(1.27268 0.506393 0)
(1.27364 0.446031 -1.74009e-20)
(1.26955 0.393067 -6.18328e-20)
(1.26284 0.347202 -4.46264e-20)
(1.25479 0.307724 3.53265e-20)
(1.24594 0.273749 3.27472e-20)
(1.23646 0.244383 3.23594e-20)
(1.22632 0.218827 -6.63984e-20)
(1.21546 0.196402 3.26681e-20)
(1.20377 0.17654 -6.44929e-20)
(1.19115 0.158765 6.11604e-20)
(1.17744 0.142679 2.82936e-20)
(1.16247 0.127952 5.82277e-20)
(1.14602 0.114287 4.72411e-22)
(1.12783 0.101268 -5.48514e-20)
(1.10761 0.0882203 4.53295e-22)
(1.08457 0.0755023 -7.8804e-20)
(1.05588 0.0686746 -1.71515e-19)
(1.01848 0.0767107 1.52617e-19)
(0.62492 0.800848 -1.98314e-19)
(1.01176 0.838002 9.92614e-20)
(1.12178 0.759328 0)
(1.17517 0.669918 -8.86564e-21)
(1.20472 0.587937 9.17481e-20)
(1.21921 0.515533 -1.86759e-20)
(1.2246 0.452453 -4.75174e-20)
(1.22486 0.398128 8.46183e-20)
(1.22229 0.351707 8.75262e-20)
(1.21807 0.312086 -4.34578e-20)
(1.21269 0.278122 0)
(1.2063 0.248774 0)
(1.19892 0.22316 7.87193e-20)
(1.19052 0.200561 -3.45889e-20)
(1.18105 0.180388 3.77008e-20)
(1.17042 0.162154 6.88034e-20)
(1.15851 0.145452 -6.56579e-20)
(1.14516 0.129948 -6.38797e-20)
(1.1302 0.115339 6.16198e-20)
(1.11339 0.101192 -9.1375e-20)
(1.09451 0.0868709 1.17261e-19)
(1.07275 0.073038 9.04023e-20)
(1.0452 0.0658223 6.62662e-20)
(1.01119 0.0714531 -1.20577e-19)
(0.618725 1.05678 7.72262e-20)
(0.919711 0.892272 -6.21856e-20)
(1.03832 0.78099 -6.27352e-20)
(1.10454 0.680635 0)
(1.14263 0.592422 -1.56958e-20)
(1.16361 0.516951 1.00744e-19)
(1.17463 0.452551 -1.16658e-19)
(1.17996 0.397918 5.57759e-20)
(1.18194 0.35171 -5.50931e-20)
(1.18174 0.312496 1.0702e-19)
(1.17988 0.278933 5.2283e-20)
(1.17659 0.249883 9.29412e-20)
(1.17194 0.224423 -1.75164e-19)
(1.16596 0.20182 -3.97059e-20)
(1.15866 0.181484 4.12779e-20)
(1.14998 0.162932 0)
(1.13984 0.145766 3.77565e-20)
(1.12812 0.129662 1.39452e-19)
(1.11466 0.114331 -1.69815e-19)
(1.09932 0.0993547 0)
(1.08195 0.0841535 0)
(1.06179 0.0695662 6.34479e-20)
(1.03584 0.0618521 -1.30132e-19)
(1.00491 0.0655189 2.13526e-19)
(-0.0203883 -0.0680073 0)
(-0.0318402 -0.0426374 -4.2275e-18)
(-0.0717023 0.0574459 -1.06481e-19)
(-0.147715 0.217472 1.76443e-19)
(-0.126981 0.348627 -1.31863e-18)
(-0.278466 0.94991 7.38171e-19)
(-0.0252086 -0.0612299 0)
(-0.0369959 0.016132 1.98372e-18)
(-0.0664846 0.130582 -1.50534e-18)
(-0.117181 0.276466 0)
(-0.1073 0.43766 -2.34416e-19)
(-0.0824513 0.767769 -4.54845e-19)
(-0.0315095 -0.0440184 8.74266e-20)
(-0.035036 0.0594152 -5.4331e-20)
(-0.0530473 0.176889 1.32613e-18)
(-0.080513 0.313681 0)
(-0.0513609 0.47663 -8.37088e-19)
(0.02843 0.700413 0)
(-0.0368385 -0.0236384 -4.31178e-20)
(-0.0295081 0.09304 1.48735e-19)
(-0.0362141 0.209536 7.26691e-20)
(-0.0449024 0.335989 9.27402e-19)
(-0.00343099 0.483817 6.62495e-19)
(0.0951785 0.652276 0)
(-0.0401251 -0.0024834 0)
(-0.0220384 0.119021 -9.23892e-20)
(-0.0185523 0.231818 6.73584e-20)
(-0.0118712 0.346779 -8.63639e-19)
(0.0386269 0.474678 -1.63851e-19)
(0.140458 0.604061 2.04291e-20)
(-0.0403979 0.0148906 -4.19168e-20)
(-0.0132296 0.137634 0)
(-0.000950634 0.245294 0)
(0.0178824 0.348056 0)
(0.0744796 0.45531 1.54875e-19)
(0.174029 0.554023 -5.41371e-19)
(-0.0368987 0.0279449 2.8701e-18)
(-0.00321213 0.14957 1.26726e-18)
(0.0164051 0.251445 -1.07201e-18)
(0.0444849 0.341785 -6.61144e-19)
(0.104852 0.429389 0)
(0.200128 0.503238 5.10232e-19)
(-0.0300271 0.0365354 -2.56711e-18)
(0.00790189 0.156084 -1.35487e-18)
(0.0334473 0.25175 9.24638e-19)
(0.0682521 0.329802 7.35515e-19)
(0.130606 0.399333 0)
(0.221035 0.452689 -1.19719e-19)
(-0.0206622 0.0413303 4.11632e-20)
(0.01981 0.158424 0)
(0.0500231 0.247588 -1.107e-19)
(0.0894817 0.313687 9.05387e-20)
(0.152493 0.366805 0)
(0.238126 0.402983 1.19554e-19)
(-0.00990749 0.0431309 -2.62018e-18)
(0.0320738 0.157686 -1.2491e-18)
(0.0659015 0.240166 1.08711e-19)
(0.108396 0.294742 6.11015e-19)
(0.171127 0.332988 0)
(0.25233 0.354502 1.19714e-19)
(0.0011901 0.0426141 6.67133e-21)
(0.0441996 0.154736 1.23657e-18)
(0.0808344 0.23046 9.79505e-19)
(0.125163 0.273993 -7.85389e-19)
(0.187008 0.29871 5.7728e-19)
(0.264277 0.307437 0)
(0.0117715 0.0402628 2.61186e-18)
(0.0557151 0.150191 0)
(0.0946122 0.219211 -8.73591e-19)
(0.139929 0.252225 -6.93918e-19)
(0.200533 0.264548 -7.78696e-22)
(0.274387 0.261814 0)
(0.0211861 0.0363913 8.11374e-20)
(0.0662198 0.144435 -3.83164e-20)
(0.107091 0.206948 8.76879e-19)
(0.152846 0.230029 1.5553e-21)
(0.212033 0.230905 -6.52958e-19)
(0.282961 0.217612 5.65919e-19)
(0.0289625 0.0312066 -4.06713e-20)
(0.0753901 0.137661 6.14248e-19)
(0.118197 0.194029 -4.46848e-19)
(0.1641 0.207838 1.06405e-18)
(0.2218 0.198101 0)
(0.290202 0.174801 -5.06654e-19)
(0.0347574 0.0248524 0)
(0.0829446 0.12992 -6.25397e-19)
(0.127926 0.180656 -9.69281e-19)
(0.173921 0.185962 -3.16576e-19)
(0.230094 0.1664 0)
(0.296238 0.133364 0)
(0.0382831 0.017467 4.05945e-20)
(0.0886042 0.121131 -2.00716e-20)
(0.136341 0.166925 4.71795e-19)
(0.182587 0.16466 4.58018e-20)
(0.237167 0.136082 -1.66586e-21)
(0.301097 0.0933234 -3.35663e-20)
(0.0392101 0.00922081 6.53798e-19)
(0.0920917 0.111087 3.29956e-19)
(0.143556 0.152818 -3.03385e-20)
(0.190433 0.144155 2.18646e-19)
(0.243311 0.107502 -1.58848e-19)
(0.304748 0.05482 -3.23854e-20)
(0.0371278 0.000389015 -5.75733e-19)
(0.0931268 0.0994403 -3.33741e-19)
(0.149762 0.138184 -8.12554e-21)
(0.197878 0.124613 -2.03453e-19)
(0.248854 0.0810954 1.44537e-19)
(0.307069 0.0181781 0)
(0.0315593 -0.00857695 -8.7902e-20)
(0.0913952 0.0856551 2.84522e-21)
(0.155201 0.122726 -4.25211e-21)
(0.205462 0.106173 1.17959e-19)
(0.254237 0.0574497 1.62057e-20)
(0.307766 -0.0159463 0)
(0.0223227 -0.0201627 6.66623e-19)
(0.0864173 0.0690271 0)
(0.160143 0.105989 0)
(0.213909 0.0889247 -3.466e-19)
(0.260151 0.0373645 0)
(0.306238 -0.0461992 0)
(0.0122273 -0.0304731 -6.26607e-19)
(0.0777348 0.0488997 8.29215e-19)
(0.164785 0.0874186 0)
(0.224217 0.0729475 3.11633e-19)
(0.267875 0.0218068 -5.11062e-20)
(0.301321 -0.070853 0)
(0.0038357 -0.036823 0)
(0.0656867 0.0252506 -9.01249e-19)
(0.168833 0.0665821 -8.63438e-20)
(0.237539 0.058447 6.89335e-20)
(0.27945 0.0118918 1.09704e-19)
(0.287546 -0.0868858 -9.35171e-20)
(-0.00526739 -0.0434159 -8.10933e-20)
(0.0498194 -0.00198097 6.09057e-22)
(0.169699 0.0427018 1.41177e-19)
(0.25424 0.0449159 -7.47271e-20)
(0.2965 0.00824902 -1.23351e-19)
(0.247935 -0.0930994 1.29675e-20)
(-0.0139647 -0.0510867 -2.80717e-18)
(0.0233755 -0.0379369 -6.52538e-20)
(0.155091 -0.00194684 -1.71012e-18)
(0.271433 0.0158594 7.98329e-20)
(0.307294 -0.00433816 -1.36668e-19)
(0.163642 -0.128522 9.0838e-19)
(0.463345 1.19204 8.51321e-20)
(0.801746 0.906906 5.26083e-20)
(0.949853 0.778048 1.03074e-19)
(1.03172 0.675261 1.47475e-19)
(1.07951 0.585827 0)
(1.10785 0.510005 2.35328e-20)
(1.1251 0.446076 1.42681e-19)
(1.13582 0.392386 -6.69835e-20)
(1.14247 0.347256 0)
(1.14629 0.309042 -5.51792e-20)
(1.14789 0.276301 -5.18518e-20)
(1.14761 0.247863 1.08505e-19)
(1.1456 0.222809 1.01541e-19)
(1.14197 0.200419 0)
(1.13678 0.180121 0)
(1.13001 0.161449 -8.56918e-20)
(1.12162 0.144025 -3.77207e-20)
(1.11154 0.127544 -1.51402e-19)
(1.09966 0.11174 3.27866e-19)
(1.08589 0.096224 -1.42142e-19)
(1.0702 0.0804709 0)
(1.05184 0.0654213 -1.04091e-19)
(1.0277 0.0572354 1.07471e-19)
(0.999693 0.0592303 -1.8312e-20)
(0.424053 0.986279 -4.42104e-20)
(0.716385 0.856636 -1.05795e-19)
(0.871532 0.750889 5.93781e-20)
(0.962895 0.654024 -1.81986e-19)
(1.01869 0.568128 -2.12903e-19)
(1.05404 0.494861 -1.64636e-19)
(1.07739 0.433299 0)
(1.09338 0.381801 0)
(1.10453 0.338578 1.50497e-19)
(1.11219 0.30193 1.30788e-19)
(1.11709 0.270419 -1.22302e-19)
(1.11966 0.242911 -1.07758e-19)
(1.12016 0.218527 -1.00954e-19)
(1.11878 0.196586 0)
(1.11561 0.176549 1.87038e-19)
(1.1107 0.157979 -4.79723e-22)
(1.10405 0.140522 1.70002e-19)
(1.09562 0.1239 -2.48545e-19)
(1.08535 0.107873 0)
(1.07323 0.0920849 -1.52935e-19)
(1.05933 0.0760712 1.49337e-19)
(1.0429 0.06083 7.12898e-20)
(1.02071 0.0522775 7.77466e-20)
(0.995531 0.0528455 -4.24625e-21)
(0.39334 0.875226 -4.23632e-19)
(0.653813 0.799447 2.88824e-19)
(0.805194 0.709487 -7.07897e-20)
(0.900704 0.620928 4.65532e-19)
(0.962468 0.541183 9.4358e-20)
(1.00383 0.472662 0)
(1.03266 0.414993 2.00255e-19)
(1.05344 0.366702 -1.70706e-19)
(1.0687 0.326068 9.70169e-21)
(1.07988 0.291465 -1.50339e-19)
(1.08781 0.261546 2.69494e-19)
(1.09302 0.235261 -2.45355e-19)
(1.09587 0.211803 1.1486e-19)
(1.0966 0.190546 -1.10761e-19)
(1.09537 0.170995 0)
(1.09225 0.152748 -1.91313e-19)
(1.08731 0.135482 -9.44598e-20)
(1.08053 0.118947 8.49869e-20)
(1.07189 0.102934 -8.76352e-20)
(1.06149 0.0871262 -8.48857e-20)
(1.04943 0.0711231 0)
(1.035 0.0559495 3.23358e-19)
(1.01484 0.0471658 -1.53531e-19)
(0.992391 0.0465318 -2.30789e-19)
(0.373397 0.781617 5.06312e-19)
(0.603918 0.732398 -3.74922e-19)
(0.749337 0.657581 0)
(0.846292 0.579205 -1.28691e-19)
(0.912155 0.507272 -4.07188e-19)
(0.958268 0.444901 2.44518e-19)
(0.991676 0.392143 -9.55386e-20)
(1.01657 0.347757 -9.58741e-20)
(1.03542 0.310206 0)
(1.04971 0.278017 3.03107e-19)
(1.06036 0.249985 -2.81193e-19)
(1.06797 0.225178 1.30453e-19)
(1.07297 0.202877 -3.6587e-19)
(1.07566 0.182525 3.40627e-19)
(1.07624 0.163674 0)
(1.07485 0.145962 3.02867e-19)
(1.07155 0.1291 -2.96316e-19)
(1.06639 0.11287 1.88402e-19)
(1.0594 0.0970949 1.81473e-19)
(1.05071 0.0815052 8.53882e-20)
(1.04052 0.0657689 0)