/*--------------------------------*- C++ -*----------------------------------*  =========                 |
  \      /  F ield         | OpenFOAM: The Open Source CFD Toolbox
   \    /   O peration     | Website:  https://openfoam.org
    \  /    A nd           | Version:  11
     \/     M anipulation  |
\*---------------------------------------------------------------------------*/
FoamFile
{
    format      ascii;
    class       volScalarField;
    object      U;
}
// * * * * * * * * * * * * * * * * * * * * * * * * * * * * * * * * * * * * * //

dimensions      [0 1 -1 0 0 0 0];

internalField   nonuniform List<scalar> 
2880
( 
0.12965190846784821
0.2646640194538662
0.4218284646843339
0.46899641260956365
0.5259430151181101
0.23768519545095132
0.20017325733833333
0.3346706490971493
0.46083047638980623
0.48357050108066624
0.4917711649261952
0.26910856244104586
0.2306315587375983
0.3453101034331006
0.44683310585747393
0.44338028149018494
0.42344446919830075
0.26280405914256766
0.2519227232008423
0.3390354351807268
0.4093926452687443
0.39004640601796
0.3537472817565326
0.2534599130173322
0.2663105552848104
0.3332686489183416
0.37246673222090393
0.33283295174519584
0.2845980971057479
0.2645273115652485
0.28300508270658215
0.3209828026412229
0.3295022357675112
0.27877293780539997
0.24408168283198217
0.24883422456119927
0.30333782723471925
0.3057441749516482
0.2918613905710098
0.231552033388125
0.19871103026450063
0.25059401156073025
0.3161465823219715
0.29715671897301527
0.2569663833360796
0.18900148025890517
0.171710145325512
0.21891423991356312
0.3229339923533429
0.2922901712199538
0.2267029167368608
0.15146557639878136
0.1373387746784986
0.2195405539090588
0.34152092196673767
0.2845880676978293
0.21065643549905919
0.12866006286523024
0.10421199244394391
0.16554981410092928
0.3363133172537882
0.2810962045722166
0.20083017770984357
0.10693112338149319
0.10205831283781552
0.15413260773518334
0.34253826716080904
0.2813645627730917
0.19332688714266189
0.10540655779715591
0.07927920778468811
0.1517143233093856
0.3383311542406908
0.28496195732206375
0.19864223749132498
0.10658695639288407
0.0904784309620848
0.11967274068559525
0.3301019168425623
0.2885823891606345
0.2096759958919316
0.12848227694581035
0.10614851783895995
0.16910121101412018
0.325046811393721
0.29077383885549146
0.221167582919677
0.16492558592942544
0.15454848109282993
0.18184006768030764
0.30628695769759096
0.2935590649312425
0.24033990695154303
0.20230876431102743
0.1897606232549261
0.21423797498981595
0.2829680358594217
0.29200513779938536
0.25732515235512227
0.2339659606241864
0.2105629143646269
0.2373288912356173
0.26913386032232867
0.2989698671448076
0.2787244683489677
0.2581738977112049
0.2571649222664965
0.25934030834038524
0.2415384666754341
0.2984684604360578
0.2950175020258371
0.2891258152616278
0.2837113320195144
0.28232260983156576
0.21844430066092904
0.29623815531608055
0.3138294269261587
0.3076695509468082
0.30291493279298765
0.3092238568054376
0.1914587281201281
0.2885929532823943
0.32676922016931653
0.3249788687866388
0.33109482487521313
0.32649853462363465
0.16468923306037697
0.289608570824661
0.33793827938509746
0.34050369801405644
0.3392220408324558
0.3306722547756705
0.1363111696187325
0.27311986834603164
0.34321570548535274
0.34206391630372696
0.3404897270252397
0.32560628107811346
0.08164823494780094
0.23126301634603907
0.3290352635464866
0.3130080490234946
0.30079100868897574
0.2881573446004302
1.1956747628228699
1.378478749811611
1.4397517454913609
1.4403537794794594
1.4147940039820788
1.3846785237276458
1.3657490027142276
1.3298896258453516
1.312943228833279
1.2894696535988475
1.2737245604773275
1.2620281685919033
1.2550156644309103
1.2380919628996208
1.2264411038851057
1.2082500817905466
1.191143910759256
1.1735441221115552
1.1555453315592867
1.1341967742321082
1.114200991807996
1.0906255228965265
1.062750540922605
1.029028833686783
0.950639645664149
1.3781023715733918
1.4640964680074662
1.4848843061510255
1.468954199218188
1.4374532530814363
1.3969342153919984
1.378193472620549
1.347614305269766
1.3299479875426838
1.3052695218533554
1.2966717586653338
1.2761479450886295
1.2583970796123842
1.2429350874719356
1.2246538740306843
1.2124902899043042
1.1888488233374288
1.1665652843528844
1.1493246660480143
1.1228806054577873
1.0999200732197945
1.06811825969042
1.0349051445089452
0.7378534428270812
1.301062536930422
1.4706879872750274
1.5071359309951884
1.4943558783469806
1.4797951306727477
1.4367023252635533
1.411751424831018
1.3865584409368925
1.3638676140075927
1.3395779246954693
1.3204935334943984
1.3004467060340201
1.280689450695438
1.2656230305332499
1.2417443434624431
1.223691235062737
1.2005484582762134
1.1820299753841454
1.1593617124052429
1.133314588826008
1.109251775331244
1.0782753271361072
1.0428008000476732
0.6541642252468411
1.2093759789303349
1.449777651763113
1.513780568576985
1.5190974504139794
1.5147226115151564
1.480752690501523
1.4450796083640256
1.4192478512497604
1.3952355147539528
1.361714455866908
1.342320642474572
1.3165752119149503
1.2991461641698894
1.275893409534465
1.2603987278013398
1.2379895527320794
1.2158078278660882
1.1922629765455877
1.1693074148462492
1.1480084719127799
1.1179583221717677
1.0836084458671718
1.0485060555727546
0.5626949063000923
1.103659479785877
1.3834791464946465
1.5217899663543943
1.5555327830976378
1.533599279554936
1.5141189981175165
1.4827231905712779
1.451803750235897
1.4236226287732927
1.3919728235688742
1.3693157807977943
1.3428516875061183
1.3153285030787365
1.2933366982436398
1.274040675257849
1.2510020209573418
1.2257638862602076
1.2042629205627535
1.1804434325359099
1.151136335781552
1.1225638248871066
1.091807801331346
1.0557806852799068
0.5268320496711048
1.010092171016585
1.312219701491962
1.4787713220165737
1.5424395823505583
1.543271413474169
1.5188692703222222
1.5068077765493975
1.4736683870812206
1.4504265983934848
1.4195243416141567
1.3951462989721806
1.3518113773500886
1.3341642737568649
1.3001018791472427
1.2810532676378106
1.2555324393793694
1.2354347805964825
1.2120020587929838
1.1935730939431657
1.1622056371783833
1.1293297896017287
1.0979314255325765
1.0614604611120342
0.505911058410237
0.9432430570070984
1.2630192723835194
1.4149184095401512
1.5081685753612009
1.553169696016226
1.5403190878286197
1.526512659684329
1.501507765487382
1.4670469598191156
1.434221548301485
1.4017021210266143
1.3699700488595385
1.3495394516405674
1.3181226314639982
1.2939822729249328
1.2697991342195718
1.245125456357876
1.2211591453247546
1.1947667371303479
1.167723490793384
1.1427876509960921
1.107964393252759
1.0673358931367858
0.4758930138634692
0.8714802200977312
1.1859787390249168
1.3706295950322513
1.481865461229936
1.5369015566003998
1.5409322941404509
1.541911540606792
1.5134102547020105
1.4798324545071848
1.4458840439918945
1.410501220796953
1.3860998820456143
1.360472764704692
1.3274869254256128
1.3066247096657966
1.2783198660517137
1.2564191136486367
1.230994955901654
1.2040495539654947
1.1749223937648934
1.1459287963093483
1.1125380316461664
1.0756444235089135
0.4419078986589006
0.7800413096782092
1.0686347360344683
1.3188514143954344
1.4415608324084763
1.5148183046981094
1.544901411516257
1.5463567962994393
1.5186504650890684
1.491563198689817
1.4631900099279556
1.42818302779231
1.3958468083480087
1.3617566929401
1.3315385140638085
1.3109433371961308
1.2844051441620765
1.258320768079527
1.237379031663963
1.2082491764862504
1.18071685464857
1.1500873300916248
1.1196657341357619
1.0836084691161714
0.3742611658882975
0.7149265516880419
1.0204377449792335
1.238671840199569
1.3916380824060348
1.4666999439102728
1.509423861383593
1.5282581028234605
1.513231159750637
1.4968230100085689
1.4596989728507308
1.4269012939114756
1.3999826108916458
1.36981771988282
1.3402270952937552
1.3179426110344532
1.2895568175646772
1.2674893199738209
1.23936958061467
1.2117602257460005
1.1870452502407924
1.1561771008640138
1.1253031060404965
1.0886704215855016
0.35142648475044125
0.6176767454499127
0.9225789717975544
1.150664457781943
1.3107382679488877
1.4161076558377816
1.4816642370058597
1.492895666391217
1.4930438617926276
1.4812454596354794
1.4578754795970825
1.4318586831011635
1.4024681212299186
1.374917026267012
1.3469772220371785
1.317093511364245
1.290538868601709
1.2693550944097278
1.247360847312419
1.2187153843094556
1.1938118647845872
1.165420995880306
1.1317441204737326
1.0974898184965443
0.312518215282362
0.5660264085285573
0.8107386747287048
1.0644804821708351
1.2273457798713188
1.352356279969894
1.4160215845711703
1.4568843063449646
1.4628369868022841
1.4545537979821734
1.4439886454295114
1.4213011830585423
1.39833519561823
1.3728816085576927
1.3449497138432067
1.3152758107719533
1.2935520539503522
1.273067966088242
1.2477184347445003
1.2234861989085757
1.1965823396091433
1.171134020422153
1.1390264787792763
1.1040095057152515
0.263583881409817
0.49203330729596295
0.7571121831882202
0.962130374510503
1.1379101177471749
1.2541151765214824
1.3428213124325263
1.3915671695670915
1.4265056433357068
1.4244788224059028
1.413123477845534
1.4107109810784952
1.379443234072165
1.3600496065262984
1.3360570786665147
1.3158292673688297
1.2913897013064548
1.2723196799701504
1.2471902650727213
1.2228712733853837
1.20002729383566
1.172053904363759
1.143881672143087
1.1091874174074614
0.2618911041428838
0.4524801464413712
0.6465595767765817
0.8646003758952956
1.0371947801467927
1.1724288460141306
1.2684720802899137
1.325350170764167
1.36328965917761
1.3790727385268378
1.382061851119067
1.375390460516123
1.3537113755896437
1.3391740818352977
1.3226724720938712
1.3063597530145743
1.2828637531345048
1.2644840858670243
1.2444693994177578
1.2196625202981348
1.2000571037074876
1.1761319758833633
1.1520356258477253
1.117793397924934
0.24820011577918216
0.3830287148248435
0.5881180353693565
0.7910559815463979
0.9524569812757476
1.0834577322872792
1.183555593254851
1.2476116693129295
1.2895857518555034
1.3175983462657648
1.3252659536616949
1.3304339382908608
1.326932285485157
1.3280053267495469
1.3015924093315268
1.2855561195408536
1.2724420506698513
1.253773448090716
1.23548597787879
1.2167258725718069
1.1968974871187938
1.1786997878641512
1.1531523381633317
1.123653982718761
0.26488555630200905
0.3889140140886318
0.5198675896999968
0.6977693770731046
0.8368781154987435
0.9604344428440923
1.0699210538148927
1.150305663341897
1.2083603476936458
1.2476872249671107
1.2685120259455815
1.285314229756463
1.2864697492372545
1.280702624111801
1.2715365860896963
1.2591906408328608
1.2541818935957105
1.240763588882602
1.2273658908916445
1.212330437217659
1.1903726309513976
1.1736765401733136
1.1587138466041207
1.1302248006848334
0.2539502444040068
0.3434176786760731
0.4524358470488425
0.6131766094525446
0.7608708204330077
0.8436798123604348
0.9726725635635218
1.0452069460696118
1.1172547027349262
1.1648174450230269
1.1916734093957262
1.214097654708256
1.228791590937511
1.235051704095655
1.2320546178485818
1.2324319783810849
1.2261707280013878
1.2202492433746124
1.2083923400766703
1.1957010364218057
1.1842609248513885
1.1708315959396864
1.1565460794311935
1.134413598106072
0.28132705917309425
0.33685604116421125
0.4178559392438278
0.5546624470615422
0.6549785722806709
0.7722213629412048
0.8707589984214781
0.9384284704404864
1.0157203571032327
1.0613782323814698
1.1025250045345794
1.1397948399091182
1.1558966874623957
1.1686308648968826
1.1824058400335458
1.1883050826470671
1.185071583340749
1.1778758704652885
1.1801128051703254
1.1767556216643111
1.1659316272056057
1.157411699440957
1.1474430743846828
1.1321613307077558
0.292834831458443
0.3225830018291287
0.4156160694172982
0.5159531394019992
0.6010360104824095
0.6820278787730725
0.7770577298172082
0.8475829492609543
0.9142956376526292
0.9628622343168728
1.015026262048118
1.0495900075018199
1.0714592616529746
1.0937770779864238
1.113233572827497
1.13041073500543
1.1301359070118222
1.1347772260968345
1.1377206419770436
1.1433039204789
1.1397355059639416
1.1368496422223877
1.1290251698078924
1.122130295589137
0.31120374437094017
0.3140127877988985
0.36819149412235463
0.4352504925677819
0.5341100651202539
0.6121450872292415
0.6908809018687827
0.7471169231276712
0.8058022673760955
0.8597553157168238
0.9148693019883956
0.9496616316663647
0.9765732772901762
1.0034968721825954
1.029662749559122
1.0548063430386787
1.0625073779293042
1.0834957760159056
1.0866290028677212
1.09459569985843
1.1004672156429627
1.10399231899844
1.1010746151618616
1.1018610227654617
0.3058141904033438
0.3123067940534504
0.3360981089933851
0.3962741933935976
0.47453158707574017
0.529397499880587
0.6054645136656351
0.672230893797299
0.7149701722549315
0.7660425109504254
0.8033561490439528
0.8490743862106311
0.8890573621067552
0.9159717865107068
0.9474433604906065
0.9693074928008922
0.9896503803235751
1.0161926150762106
1.0167879205323433
1.0281185107030661
1.0518080420743237
1.0502401870758507
1.0624324838116566
1.0690972597272832
0.31984728154921716
0.3085137018754055
0.3072477752388343
0.36864274547243536
0.4095797008581964
0.46468313445438014
0.5461432982412437
0.6037046468057654
0.6250600170006608
0.68668722605371
0.7152376442843634
0.7454437463662434
0.7910699023273197
0.8227607587565166
0.8615990602299951
0.8717155531011502
0.9047112484323034
0.9256219939575338
0.9492436330582191
0.965557886871344
0.9723409046614421
0.9945583449195824
1.0077919603009111
1.0193222138617775
0.3085620190720991
0.2794539862051868
0.26040987805855575
0.31484755775203954
0.3776172636778554
0.417120794100584
0.4405490570086794
0.49292539510466515
0.5349186864373034
0.5818360402938705
0.6240741806241052
0.6516192260744302
0.6921959169325604
0.7190260537753737
0.7579674966100083
0.7884043381657388
0.8243739810903706
0.8439038302677947
0.8610033094541361
0.8870882297167367
0.9059089338010817
0.9278125956195171
0.9317752706415301
0.9543369437539868
0.25722051430558845
0.2375069786248799
0.2682830315109572
0.26413450427483354
0.3108156300873859
0.3302917813576748
0.38129909095796277
0.4248121816425662
0.4561262485757852
0.5070949774443017
0.5330584897225777
0.5723302506849006
0.5783352159437675
0.6153726558191773
0.6378191971601935
0.6841938016538678
0.7265793380822081
0.7543046656182923
0.7714341626956795
0.7904491903223526
0.831739898020043
0.8411368801985109
0.8678708461112192
0.8907638925209042
0.05050164722121286
0.11752832208202844
0.19151550387347233
0.22971815129899104
0.23751369052639965
0.2384965481301476
0.08047396731298413
0.16017396503491665
0.21223432553406837
0.2370941364513427
0.23811984973460576
0.2211787306015401
0.09853745118741634
0.17530982655204191
0.21776610428271345
0.2300806970790904
0.23188214681383226
0.23232159492429644
0.11514056705978262
0.18562069745547785
0.22190182182941853
0.2335383691656095
0.23930733539925025
0.2225909538634333
0.1336611925517386
0.19645314724684346
0.23195802767467688
0.23690556736956547
0.23923360949056566
0.2377704215431528
0.14748952979326294
0.20781350014811292
0.23537538453643855
0.2414235145726485
0.2475611264492233
0.24576903718793083
0.1663903204298801
0.2211820452638179
0.23494165984568705
0.25011969206896684
0.25306116089723674
0.2597684018115408
0.17903349752106817
0.2179160525581185
0.24909876201053543
0.2576169381273962
0.25872669441718577
0.2755521986474757
0.18658785525571206
0.22890422428349608
0.25229280800371273
0.2572197660164557
0.27139212594766965
0.2822600506591161
0.19325327526459324
0.23425241219168902
0.25435100132879684
0.27143627262489367
0.2773162573408486
0.2939410668746314
0.1994000227199467
0.235277581220501
0.26506675305669825
0.2717345724957782
0.28754863003318676
0.2670172768506915
0.20327295746695628
0.2378937768721165
0.26871875278345586
0.26913543726457106
0.27710010966043286
0.2739976184620331
0.2081590149722599
0.2370000840837496
0.26539464120321593
0.27915767320215507
0.2685745831991654
0.27360700883500516
0.20910752655751969
0.23273386745257296
0.26997039776373793
0.2797016355647541
0.28631282661748686
0.26146087166326676
0.20313673738769666
0.2376722061978794
0.2656137811711817
0.27966750363301723
0.2996511178982687
0.2724554416920665
0.20583731329207902
0.2349806560378322
0.26914854120542103
0.29181501320862374
0.28160276081498126
0.2593423535365229
0.18868964916695483
0.23033595465224238
0.2679213947121039
0.2818760019215036
0.29379623318364206
0.2748693622939731
0.19063369103756428
0.22857922213037046
0.27820490227161576
0.299631110276704
0.31192659493917946
0.2933268001955648
0.17680385335206183
0.22468710469142333
0.2762733325796639
0.3057031367633176
0.31511731195854836
0.2823971374989027
0.1601564662261994
0.21522386983595987
0.27016802094236914
0.308122341603472
0.32884267943885126
0.307471791996221
0.14044882077841128
0.20130304057499832
0.26726454535539046
0.3089012164076235
0.33464165567239945
0.3048998438411331
0.1225727513158783
0.18636762538903787
0.26289029330367514
0.3095385932399958
0.3701490207769611
0.32984103879615045
0.10534884707967129
0.16392730991098364
0.24678292750718978
0.302534892749415
0.39817331666086203
0.3362083899487339
0.06021096235542847
0.12184201907361927
0.22164171225541732
0.26031939294550605
0.42133420794878707
0.32368048810970385
0.2250174060326613
0.18222391272258265
0.2121192323417993
0.21767161810560876
0.271920025329755
0.2908770706964321
0.3128009648969714
0.35470830467122316
0.4040204920721371
0.41510062891492305
0.44287943814303565
0.4396473647436031
0.49163684993021806
0.5137030321337838
0.5431604771003037
0.59453589081509
0.6277660643772769
0.6570051932158076
0.6894125953414558
0.7198749571379901
0.7446357494017166
0.7619154142060685
0.779184447214164
0.8170773888854583
0.2576625420080012
0.18647573419366048
0.1887382263450036
0.19781875227425583
0.2238433121122938
0.22316573905792925
0.2444505361982341
0.2864390688061583
0.3033679420539519
0.34285382950311494
0.32692992051124825
0.38627954093166395
0.40320381673212546
0.43114741258044764
0.4688444468289277
0.5133564879249511
0.5500230801238771
0.5757358487594948
0.5978108706353982
0.6344092372390192
0.6569219319331663
0.6880977825022957
0.714424868053771
0.7389474252656005
0.2710183309693169
0.22286072424938175
0.17999451284445822
0.1669324340315338
0.18354918144754506
0.1897554592500471
0.19436799822934725
0.23610442286504185
0.22594364546315837
0.2436366824230214
0.25866782123920273
0.2832742432479948
0.33469476789130737
0.35933816990052225
0.3870418206328937
0.44306250517214707
0.4661906135812993
0.5136796202995706
0.5357794688810167
0.5705125485253607
0.60094777686549
0.6243682307963437
0.6387738353160688
0.6776950429814337
0.26339849000941207
0.24767468775303647
0.20779331194635076
0.16655074292559124
0.1661797433596992
0.1554171266936708
0.15477936252315583
0.13339972538376077
0.15601948621223427
0.17451046923086588
0.19185312665725796
0.20008445712962664
0.25595353599141657
0.30192184535930744
0.35337800285757215
0.3867626733387822
0.4206139992912056
0.4711538898192775
0.47271096667650336
0.514451237090707
0.5511800267182303
0.5788747395112626
0.6181661732403978
0.6388707205246731
0.27939713878232814
0.2605100404534214
0.2281517216176795
0.18130974988465498
0.1528018495721034
0.11581190029652855
0.12414306511768824
0.09573138185943253
0.10629937183581384
0.13370812689347167
0.1795539613221554
0.20403806174085126
0.24479071989560786
0.2862413148559816
0.3244696554304508
0.3750676279565591
0.4092062654458144
0.42695918230159646
0.461146303382743
0.5024495788415727
0.5463065034483794
0.5616209255176137
0.6026641304692486
0.6267564367615635
0.29071966704859986
0.26933676374727894
0.2376175287627218
0.1951063104163676
0.13592170931204317
0.10046205013854614
0.09657844458868836
0.07858874357650336
0.0998266680119777
0.16106676847508572
0.18646889513736442
0.22115436505298258
0.26209091293761
0.29815915187264175
0.3472036447048522
0.37576973542805014
0.4026076974276571
0.45130184883755564
0.4697515826093682
0.517850075208934
0.5333459655134556
0.5780910027721464
0.6081351126155243
0.6485434158202903
0.29146272966725706
0.2626308234818133
0.24526935965157481
0.2003581082456295
0.1035127393939197
0.10194540692715581
0.09699399145929966
0.126977799134962
0.16710260823361978
0.20900134245941648
0.24433851127837392
0.2911844134736027
0.32191312424041707
0.3677670174386857
0.40217087073696645
0.41540618504517357
0.4619191489054806
0.5045442483840816
0.5371006061188438
0.560304008198041
0.590185940942111
0.6175257931844531
0.6458809424964918
0.6744335265967434
0.2947311651030726
0.2914944944816366
0.2541655706123021
0.190110401317945
0.15169983756817984
0.1454656933786922
0.1865284223047905
0.2214204141650551
0.2705155307845014
0.3052352579637915
0.3585677447539173
0.3633752344250122
0.4211539525778
0.453669443872306
0.4723425846575313
0.5149856565523291
0.5429888388307003
0.5682969661720203
0.607838471234137
0.6288872630550251
0.657192123255355
0.6922281776312167
0.7135589716506524
0.7559299934700907
0.29776227171651076
0.27643698899539987
0.25811394211447286
0.19883441413674285
0.18975210823351962
0.21724142203018093
0.2628847953943815
0.3511974264992821
0.42399828917836835
0.4191645796016267
0.45992765451771767
0.509721593178577
0.5367317968260928
0.5591129960743231
0.576721083755591
0.6101577750477651
0.6364941444774688
0.6789056886173481
0.6982706021543372
0.7291419133536454
0.7553370139010149
0.7765595342249323
0.8060236504116306
0.8311124459642716
0.27347570987369574
0.28193769817044356
0.23677759914526458
0.20306616116882575
0.25894925183822604
0.3281449935251307
0.4463147456676352
0.5059304383476284
0.5602098449723827
0.601167571415441
0.605592264897977
0.6265759345644202
0.636262179566125
0.6615006069104362
0.7234278953585238
0.7430422513266131
0.7423667641409435
0.7829231402397264
0.8082644935811383
0.830141037854225
0.8667944502968332
0.8754989149589475
0.9056326243900537
0.9271669685016316
0.27318084532793707
0.25391166869671666
0.2191037087826903
0.21655111521964404
0.32961990475174335
0.4637461680138994
0.5861813136639538
0.6221686469752119
0.6771969075819284
0.7269394872097067
0.7622099010791392
0.7739109284553296
0.7907181487553093
0.8149970000781277
0.8313823870274559
0.8570901653768503
0.872152382449342
0.9113338229480772
0.936427681238438
0.9462513663660569
0.9675873099254002
0.9894772061468915
1.0014661601821069
1.028305991195239
0.26486545718432375
0.24726808694223035
0.20102733552746116
0.33664418862544104
0.4855750602688405
0.6072047325993619
0.7351325743862412
0.7824175342740061
0.830117552905163
0.8759499776215098
0.8648859359536892
0.8669507638732016
0.9432596620372842
0.949889887499837
0.971048879618579
0.9975222498036327
1.0209896398421152
1.0320517076641982
1.038189247323084
1.0659207350575317
1.0745333700002426
1.1045518165570543
1.0958203785007175
1.1167050359855741
0.25572973155580037
0.21793406024597844
0.2358313657861748
0.4126500108661795
0.5846563910743348
0.7823659819728959
0.8812702452514342
0.920694665987184
0.9487962047320441
1.022822464764766
0.9875607629631045
1.048438475868544
1.0256470464314003
1.05657384198938
1.097143415385983
1.0841490521445662
1.1184967953494527
1.11618960020971
1.1500033695501026
1.166615055322947
1.1663611589010736
1.1758241129108549
1.1645004150133174
1.1877038867883498
0.23077285831020278
0.19707604897875425
0.3208845424372248
0.5547421869074978
0.803460997358024
0.9416322093249443
0.9863313916800698
1.0846622572479683
1.0877583736508734
1.1319220743737195
1.1815135866782813
1.1690934805789401
1.1580114220854214
1.1780838333678318
1.1941063626650514
1.2159270599877932
1.2350154642386717
1.2293764754826324
1.2237008249895096
1.2410044856002567
1.2596636374286756
1.2424443834567789
1.2418636025239929
1.230100075475471
0.2459074487441593
0.20876426617900296
0.407145015632381
0.6961214051119159
0.9320283925357756
1.0826549220779014
1.1540179171318874
1.1915878487776184
1.2184074496731396
1.2400900426162926
1.264649444976289
1.3039707648382142
1.2914358950744456
1.2989750313566601
1.3045813509282538
1.3103158740339342
1.3023167198660421
1.3130963690516206
1.3109179505531412
1.3017641135708624
1.3231166745487386
1.304917497017701
1.2896392597511392
1.266644369983319
0.24301643931477848
0.23611876358181705
0.5246532613362328
0.8915584617915601
1.0743739095732678
1.1983576598791519
1.2574231022533753
1.3005686708024615
1.3278772430771508
1.304261739740456
1.329002787707701
1.3498409291148155
1.3567569982868342
1.3828221713764417
1.37401132254056
1.3634610202600732
1.3687038977023045
1.3573334848861074
1.3703324427581693
1.361461289680336
1.3571305031706906
1.3296608760810114
1.3022406004303926
1.2787864250236594
0.20652756953265405
0.3174813598797143
0.7188072499412093
1.0616013232235342
1.1930231083724108
1.2670756454265393
1.352106604672341
1.3850231352883275
1.358589673420805
1.3865032974146974
1.4162224039696147
1.436464330464207
1.4350862681351506
1.405870430473718
1.4384765393181842
1.428750164358608
1.4039622353874877
1.398326855866777
1.394371857691713
1.3903044850853397
1.3644740167055394
1.3426027758937464
1.308125392252237
1.293144758633146
0.21112460214693007
0.4623636714128901
0.902584627277916
1.1670692759794132
1.3206888620114088
1.3954954183150674
1.4365183776523707
1.4635208347976445
1.4480855827525474
1.4786499369681647
1.4616840500210269
1.4995601980640108
1.4608159524601358
1.4688538149427344
1.4794794679350023
1.4797845698199557
1.449402443637864
1.4320584503084497
1.407509736432253
1.3908108715053504
1.3683139554142
1.3431204016897318
1.3004053787864474
1.269574294425172
0.20428636121813393
0.5930673733894141
1.0492518968308064
1.2953383580572733
1.373647624933494
1.4911406379356849
1.4532656370947896
1.5133214643905253
1.508409449449823
1.5117236989591443
1.5102015011515262
1.4859651488089136
1.5023713056892285
1.5065363675668375
1.4758282754832739
1.466791421562685
1.4530113742901174
1.4119032723803635
1.4029828338835373
1.3761491816074023
1.352897640545331
1.309961318957477
1.2894613224313862
1.2497427007669484
0.24888886265797772
0.7983356654374062
1.202603206899966
1.3890782467658138
1.4336488729414851
1.476605190592092
1.5373514750853214
1.5394473664180945
1.5398118422855605
1.5355371456593412
1.533311256457241
1.5143519196724207
1.5256478009775838
1.5003413997549797
1.474983305834484
1.448420826941669
1.4229354934350795
1.4201046595973745
1.3888576183386045
1.3576680799378065
1.3472376612598147
1.2921224362674406
1.2638492362483766
1.2197194550098542
0.3522870180063673
1.0215684724191112
1.3476534272464589
1.4564250144036364
1.4635931348214077
1.5286351288991795
1.5504420250027662
1.5500864634800713
1.5652544804919475
1.5382694012844953
1.517304361745191
1.5150497127649059
1.4924515934117684
1.4859247889332687
1.4490483295525123
1.4399697530592754
1.4051720578215616
1.3938895538680838
1.3681908917358105
1.3301289742103735
1.3008126349540685
1.2735699337523196
1.2298990846180355
1.1880325182679825
0.5309595252329818
1.1972346778552172
1.392251802274912
1.5096972951817254
1.5410412293329285
1.5425639245002447
1.568515025743173
1.561692292264527
1.565091113199319
1.5390840141318847
1.5224593103906918
1.4919484753281365
1.4731855317421179
1.4650381513840727
1.4303354736464529
1.4057119032870538
1.385466158460271
1.357350890895232
1.3376911718714268
1.3026712448243236
1.266956102164249
1.2359377581001785
1.1999856319283633
1.1555136615130117
0.8188327301727202
1.322094704583464
1.4706118857309658
1.5357327750059218
1.565146889795102
1.5547218909565796
1.5904310574225744
1.5638099561266239
1.5314505049621205
1.5064797822022749
1.4972254603887554
1.470955221539799
1.4420910890203467
1.4268072592806986
1.3953162460009083
1.3622407514117636
1.3553449156845254
1.3201419586505954
1.2927762044109947
1.2714551177526683
1.235656547119425
1.1999292961419374
1.1714353901349133
1.126711753257714
1.1320448863655546
1.3776147093213227
1.4778353355514093
1.540281678254732
1.5819493018674398
1.557027619634321
1.5712906815962362
1.5347452889081685
1.49648726535828
1.4839438077946456
1.4606082551486153
1.43361669053502
1.40758478795546
1.38771527403462
1.3550874209729402
1.3334669694005754
1.3062359868441926
1.2809085540801706
1.2606644691006594
1.2320272985151461
1.2050796050929664
1.168060176881865
1.1338045248991107
1.1012068448672445
0.08546011364987322
0.13084472195108068
0.12366660507271734
0.14638477393089733
0.22422351056848258
0.672308045083652
0.11747114792172393
0.1123270693952351
0.10160015419456686
0.14666098193809318
0.28993724482603667
0.6144696151262357
0.12118293786122156
0.09587798930000024
0.08690964995369552
0.17032831153820202
0.3599859618414043
0.6587915891622829
0.12174970797237786
0.08076414255644834
0.1047176560487573
0.2009854240875425
0.40905724820523337
0.6989972121702515
0.12434639420799115
0.08037122299711896
0.10760868405614754
0.23354599621028144
0.46174769046213615
0.7351120049983106
0.12198214835247415
0.08185213527210242
0.1189610523140961
0.2673604153195806
0.5074385501960028
0.7648681483391729
0.12138475855642923
0.0723866997620898
0.13096364840464603
0.29213857112011477
0.5406324650962889
0.7928493198937604
0.1370787075191391
0.07730996640676033
0.14149339756710533
0.31745384638734353
0.5681366111791125
0.8408949555345957
0.12364918929555258
0.07165609585972135
0.14613542033662058
0.33624321133387947
0.6003522267989102
0.8473018397432885
0.12763002493438189
0.057887949368142816
0.14798793502544783
0.3496694898119236
0.6145226001748484
0.8800768924904072
0.127339950056746
0.07201134702137241
0.15435942983837564
0.3541805127631802
0.6218416845822368
0.8632810868962656
0.12050761133067223
0.07505543737900555
0.15194935642884486
0.3529230797353219
0.6136852393259492
0.8845914172093199
0.12759808032328362
0.06965177542574372
0.146894569714587
0.3478568121989671
0.6179081502132293
0.8671434392270974
0.1290591258996845
0.07370014705780331
0.13384829312673693
0.33816852654120744
0.6004489649262622
0.8537532296216306
0.12337055843668164
0.06018793462029756
0.1291137379209424
0.3199409118196797
0.5911806352054274
0.8550946157293293
0.13325844604153886
0.07083266188955681
0.1166885139899213
0.2979195998373419
0.5535555978578601
0.8179706530152759
0.12031518035173887
0.06988807270078248
0.10813796142360968
0.26650760952200664